! Job execution by suborca V 6.01 on Odin !
Job started from odin2. running /scratch/floeserb/b3lyp__jvB9Vm__26398/orca/orca
Job execution start: Mi 13. Jan 11:56:25 CET 2021
Path is: /scratch/floeserb/b3lyp__jvB9Vm__26398/orca:/opt/openmpi-1.10.2/bin:/opt/openmpi-1.10.2/bin:/opt/orca_current:/usr/bin
Shared library path: /scratch/floeserb/b3lyp__jvB9Vm__26398/orca:/opt/orca_current:/opt/gcc-4.9.1/lib64:/opt/openmpi-1.10.2/lib:/opt/intel/mkl/lib/intel64:/opt/intel/lib/intel64:/opt/intel/compilers_and_libraries_2017.4.196/linux/tbb/lib/intel64_lin/gcc4.7:/opt/intel/compilers_and_libraries_2017.4.196/linux/compiler/lib/intel64_lin:/opt/intel/compilers_and_libraries_2017.4.196/linux/mkl/lib/intel64_lin:/opt/gcc-4.9.1/lib64:/opt/orca_4.2.1:/opt/openmpi-2.1.5/lib:/opt/intel/lib/intel64
Slurm Job ID is: 26398
Scratch dir is: /scratch/floeserb/b3lyp__jvB9Vm__26398
node21

                                 *****************
                                 * O   R   C   A *
                                 *****************

           --- An Ab Initio. DFT and Semiempirical electronic structure package ---

                  #######################################################
                  #                        -***-                        #
                  #          Department of theory and spectroscopy      #
                  #               Directorship: Frank Neese             #
                  #        Max Planck Institute fuer Kohlenforschung    #
                  #                Kaiser Wilhelm Platz 1               #
                  #                 D-45470 Muelheim/Ruhr               #
                  #                      Germany                        #
                  #                                                     #
                  #                  All rights reserved                #
                  #                        -***-                        #
                  #######################################################


                         Program Version 4.2  -  CURRENT   -
                                (SVN: $Rev: 17356$)
                ($Date: 2020-12-19 17:31:48 +0100 (Sat. 19 Dec 2020) $)


 With contributions from (in alphabetic order):
   Daniel Aravena         : Magnetic Suceptibility
   Michael Atanasov       : Ab Initio Ligand Field Theory (pilot matlab implementation)
   Alexander A. Auer      : GIAO ZORA. VPT2
   Ute Becker             : Parallelization
   Giovanni Bistoni       : ED. misc. LED. open-shell LED. HFLD
   Martin Brehm           : Molecular dynamics
   Dmytro Bykov           : SCF Hessian
   Vijay G. Chilkuri      : MRCI spin determinant printing. contributions to CSF-ICE
   Dipayan Datta          : RHF DLPNO-CCSD density
   Achintya Kumar Dutta   : EOM-CC. STEOM-CC
   Dmitry Ganyushin       : Spin-Orbit.Spin-Spin.Magnetic field MRCI
   Miquel Garcia          : C-PCM Hessian. Gaussian charge scheme
   Yang Guo               : DLPNO-NEVPT2. CIM. IAO-localization
   Andreas Hansen         : Spin unrestricted coupled pair/coupled cluster methods
   Benjamin Helmich-Paris : MC-RPA. TRAH-SCF. COSX integrals
   Lee Huntington         : MR-EOM. pCC
   Robert Izsak           : Overlap fitted RIJCOSX. COSX-SCS-MP3. EOM
   Christian Kollmar      : KDIIS. OOCD. Brueckner-CCSD(T). CCSD density
   Simone Kossmann        : Meta GGA functionals. TD-DFT gradient. OOMP2. MP2 Hessian
   Martin Krupicka        : AUTO-CI
   Lucas Lang             : DCDCAS
   Dagmar Lenk            : GEPOL surface. SMD
   Dimitrios Liakos       : Extrapolation schemes; Compound Job. initial MDCI parallelization
   Dimitrios Manganas     : Further ROCIS development; embedding schemes
   Dimitrios Pantazis     : SARC Basis sets
   Taras Petrenko         : DFT Hessian.TD-DFT gradient. ASA. ECA. R-Raman. ABS. FL. XAS/XES. NRVS
   Peter Pinski           : DLPNO-MP2. DLPNO-MP2 Gradient
   Christoph Reimann      : Effective Core Potentials
   Marius Retegan         : Local ZFS. SOC
   Christoph Riplinger    : Optimizer. TS searches. QM/MM. DLPNO-CCSD(T). (RO)-DLPNO pert. Triples
   Tobias Risthaus        : Range-separated hybrids. TD-DFT gradient. RPA. STAB
   Michael Roemelt        : Original ROCIS implementation
   Masaaki Saitow         : Open-shell DLPNO-CCSD energy and density
   Barbara Sandhoefer     : DKH picture change effects
   Avijit Sen             : IP-ROCIS
   Kantharuban Sivalingam : CASSCF convergence. NEVPT2. FIC-MRCI
   Bernardo de Souza      : ESD. SOC TD-DFT
   Georgi Stoychev        : AutoAux. RI-MP2 NMR
   Willem Van den Heuvel  : Paramagnetic NMR
   Boris Wezisla          : Elementary symmetry handling
   Frank Wennmohs         : Technical directorship


 We gratefully acknowledge several colleagues who have allowed us to
 interface. adapt or use parts of their codes:
   Stefan Grimme. W. Hujo. H. Kruse.             : VdW corrections. initial TS optimization.
                  C. Bannwarth                     DFT functionals. gCP. sTDA/sTD-DF
   Ed Valeev. F. Pavosevic. A. Kumar             : LibInt (2-el integral package). F12 methods
   Garnet Chan. S. Sharma. J. Yang. R. Olivares  : DMRG
   Ulf Ekstrom                                   : XCFun DFT Library
   Mihaly Kallay                                 : mrcc  (arbitrary order and MRCC methods)
   Andreas Klamt. Michael Diedenhofen            : otool_cosmo (COSMO solvation model)
   Jiri Pittner. Ondrej Demel                    : Mk-CCSD
   Frank Weinhold                                : gennbo (NPA and NBO analysis)
   Christopher J. Cramer and Donald G. Truhlar   : smd solvation model
   Lars Goerigk                                  : TD-DFT with DH. B97 family of functionals
   V. Asgeirsson. H. Jonsson                     : NEB implementation
   FAccTs GmbH                                   : IRC. NEB. NEB-TS. Multilevel. MM. QM/MM. CI optimization
   S Lehtola. MJT Oliveira. MAL Marques          : LibXC Library


 Your calculation uses the libint2 library for the computation of 2-el integrals
 For citations please refer to: http://libint.valeyev.net

 Your ORCA version has been built with support for libXC version: 5.0.0
 For citations please refer to: https://tddft.org/programs/libxc/

 This ORCA versions uses:
   CBLAS   interface :  Fast vector & matrix operations
   LAPACKE interface :  Fast linear algebra routines
   Shared memory     :  Shared parallel matrices




***************************************
The coordinates will be read from file: azid_alt.xyz
***************************************


Your calculation utilizes the atom-pairwise dispersion correction
with the Becke-Johnson damping scheme (D3BJ)
Cite in your paper:
S.Grimme. S.Ehrlich. L.Goerigk. J Comput Chem. (2011). 32. 1456–1465 
S.Grimme. J.Antony. S.Ehrlich and H.Krieg. J.Chem.Phys.. 132. (2010). 154104 
   

================================================================================

----- Orbital basis set information -----
Your calculation utilizes the basis: def2-TZVP
   F. Weigend and R. Ahlrichs. Phys. Chem. Chem. Phys. 7. 3297 (2005).

----- AuxJ basis set information -----
Your calculation utilizes the auxiliary basis: def2/J
   F. Weigend. Phys. Chem. Chem. Phys. 8. 1057 (2006).

================================================================================
                                        WARNINGS
                       Please study these warnings very carefully!
================================================================================


WARNING: Geometry Optimization
  ===> : Switching off AutoStart
         For restart on a previous wavefunction. please use MOREAD

INFO   : the flag for use of LIBINT has been found!

================================================================================
                                       INPUT FILE
================================================================================
NAME = b3lyp.inp
|  1> !B3LYP def2-TZVP def2/J RIJCOSX D3BJ tightopt tightscf freq 
|  2> 
|  3> %pal
|  4> nprocs 24
|  5> end
|  6> 
|  7> %maxcore 5000
|  8> 
|  9> * xyzfile 0 1 azid_alt.xyz
| 10> 
| 11>                          ****END OF INPUT****
================================================================================

                       *****************************
                       * Geometry Optimization Run *
                       *****************************

Geometry optimization settings:
Update method            Update   .... BFGS
Choice of coordinates    CoordSys .... Z-matrix Internals
Initial Hessian          InHess   .... Almoef's Model

Convergence Tolerances:
Energy Change            TolE     ....  1.0000e-06 Eh
Max. Gradient            TolMAXG  ....  1.0000e-04 Eh/bohr
RMS Gradient             TolRMSG  ....  3.0000e-05 Eh/bohr
Max. Displacement        TolMAXD  ....  1.0000e-03 bohr
RMS Displacement         TolRMSD  ....  6.0000e-04 bohr
Strict Convergence                ....  False
------------------------------------------------------------------------------
                        ORCA OPTIMIZATION COORDINATE SETUP
------------------------------------------------------------------------------

The optimization will be done in new redundant internal coordinates
Making redundant internal coordinates   ...  (new redundants) done
Evaluating the initial hessian          ...  (Almloef) done
Evaluating the coordinates              ...  done
Calculating the B-matrix                .... done
Calculating the G-matrix                .... done
Diagonalizing the G-matrix              .... done
Small eigenvalue found = 3.351e-04
Small eigenvalue found = 4.203e-04
Small eigenvalue found = 1.582e-03
Small eigenvalue found = 3.683e-03
Small eigenvalue found = 5.006e-03
Small eigenvalue found = 6.063e-03
Small eigenvalue found = 7.788e-03
Small eigenvalue found = 1.296e-02
Small eigenvalue found = 1.836e-02
Small eigenvalue found = 1.912e-02
Small eigenvalue found = 2.119e-02
Small eigenvalue found = 2.447e-02
The first mode is                       ....  151
The number of degrees of freedom        ....  180

    -----------------------------------------------------------------
                    Redundant Internal Coordinates


    -----------------------------------------------------------------
         Definition                    Initial Value    Approx d2E/dq
    -----------------------------------------------------------------
      1. B(C   1.C   0)                  1.4001         0.602091   
      2. B(O   2.C   0)                  1.3596         0.625694   
      3. B(C   3.C   0)                  1.4111         0.578218   
      4. B(C   4.C   1)                  1.3977         0.607274   
      5. B(C   5.C   4)                  1.4056         0.590021   
      6. B(C   6.C   5)                  1.3989         0.604753   
      7. B(C   6.C   3)                  1.3982         0.606192   
      8. B(H   7.C   3)                  1.0814         0.371632   
      9. B(H   8.C   1)                  1.0829         0.369645   
     10. B(H   9.C   4)                  1.0823         0.370364   
     11. B(H  10.C   6)                  1.0830         0.369488   
     12. B(N  11.C   5)                  1.4180         0.504882   
     13. B(N  12.N  11)                  1.3743         0.530866   
     14. B(C  13.N  12)                  1.4176         0.505633   
     15. B(C  14.C  13)                  1.3979         0.606892   
     16. B(C  15.C  13)                  1.4055         0.590208   
     17. B(C  16.C  14)                  1.3968         0.609332   
     18. B(C  17.C  16)                  1.4058         0.589667   
     19. B(C  18.C  17)                  1.4069         0.587242   
     20. B(C  18.C  15)                  1.3988         0.604842   
     21. B(H  19.C  18)                  1.0813         0.371850   
     22. B(H  20.C  15)                  1.0823         0.370377   
     23. B(H  21.C  14)                  1.0830         0.369483   
     24. B(H  22.C  16)                  1.0829         0.369678   
     25. B(C  23.C  17)                  1.4815         0.446490   
     26. B(N  24.C  23)                  1.3501         0.647968   
     27. B(N  25.N  24)                  1.3250         0.636357   
     28. B(N  26.N  25)                  1.3239         0.639020   
     29. B(C  27.N  26)                  1.3433         0.664418   
     30. B(C  27.C  23)                  1.3819         0.643742   
     31. B(C  28.N  26)                  1.4603         0.432217   
     32. B(H  29.C  28)                  1.1125         0.331517   
     33. B(H  30.C  28)                  1.1115         0.332701   
     34. B(C  31.C  28)                  1.5306         0.372765   
     35. B(H  32.C  27)                  1.0818         0.371089   
     36. B(C  33.O   2)                  1.3800         0.580567   
     37. B(H  34.C  33)                  1.1108         0.333594   
     38. B(H  35.C  33)                  1.1092         0.335559   
     39. B(H  36.C  33)                  1.1111         0.333219   
     40. B(C  37.C  31)                  1.5326         0.370047   
     41. B(H  38.C  31)                  1.1124         0.331688   
     42. B(H  39.C  31)                  1.1124         0.331660   
     43. B(H  40.C  37)                  1.1124         0.331597   
     44. B(C  41.C  37)                  1.5332         0.369182   
     45. B(H  42.C  37)                  1.1123         0.331821   
     46. B(H  43.C  41)                  1.1128         0.331226   
     47. B(H  44.C  41)                  1.1126         0.331400   
     48. B(C  45.C  41)                  1.5324         0.370312   
     49. B(H  46.C  45)                  1.1124         0.331619   
     50. B(C  47.C  45)                  1.5337         0.368512   
     51. B(H  48.C  45)                  1.1123         0.331762   
     52. B(H  49.C  47)                  1.1127         0.331277   
     53. B(H  50.C  47)                  1.1126         0.331430   
     54. B(C  51.C  47)                  1.5322         0.370504   
     55. B(H  52.C  51)                  1.1125         0.331558   
     56. B(C  53.C  51)                  1.5334         0.368910   
     57. B(H  54.C  51)                  1.1124         0.331709   
     58. B(H  55.C  53)                  1.1123         0.331784   
     59. B(H  56.C  53)                  1.1123         0.331819   
     60. B(C  57.C  53)                  1.5276         0.376916   
     61. B(H  58.C  57)                  1.1112         0.333168   
     62. B(S  59.C  57)                  1.8194         0.347877   
     63. B(H  60.C  57)                  1.1107         0.333765   
     64. B(H  61.S  59)                  1.4085         0.301365   
     65. A(C   1.C   0.O   2)          118.5184         0.429668   
     66. A(C   1.C   0.C   3)          119.1331         0.426414   
     67. A(O   2.C   0.C   3)          122.3483         0.426563   
     68. A(C   0.C   1.C   4)          120.5730         0.430179   
     69. A(C   0.C   1.H   8)          119.8923         0.352721   
     70. A(C   4.C   1.H   8)          119.5343         0.353233   
     71. A(C   0.O   2.C  33)          125.1628         0.424092   
     72. A(C   6.C   3.H   7)          118.7043         0.353447   
     73. A(C   0.C   3.C   6)          120.2261         0.426933   
     74. A(C   0.C   3.H   7)          121.0694         0.350634   
     75. A(C   1.C   4.H   9)          119.0908         0.353349   
     76. A(C   1.C   4.C   5)          120.1896         0.428619   
     77. A(C   5.C   4.H   9)          120.7195         0.351630   
     78. A(C   4.C   5.C   6)          119.4677         0.428299   
     79. A(C   4.C   5.N  11)          121.3120         0.412037   
     80. A(C   6.C   5.N  11)          119.2185         0.413845   
     81. A(C   5.C   6.H  10)          119.9959         0.352959   
     82. A(C   3.C   6.H  10)          119.5935         0.353101   
     83. A(C   3.C   6.C   5)          120.4098         0.430382   
     84. A(C   5.N  11.N  12)          121.4564         0.399184   
     85. A(N  11.N  12.C  13)          121.7095         0.399288   
     86. A(C  14.C  13.C  15)          119.4875         0.428595   
     87. A(N  12.C  13.C  15)          121.4420         0.412169   
     88. A(N  12.C  13.C  14)          119.0685         0.414214   
     89. A(C  13.C  14.C  16)          120.4045         0.431055   
     90. A(C  16.C  14.H  21)          119.5734         0.353409   
     91. A(C  13.C  14.H  21)          120.0212         0.353169   
     92. A(C  13.C  15.H  20)          120.6564         0.351651   
     93. A(C  18.C  15.H  20)          119.1188         0.353111   
     94. A(C  13.C  15.C  18)          120.2247         0.428335   
     95. A(C  14.C  16.C  17)          120.4641         0.428833   
     96. A(C  17.C  16.H  22)          120.5630         0.351485   
     97. A(C  14.C  16.H  22)          118.9729         0.353441   
     98. A(C  16.C  17.C  18)          119.0772         0.426005   
     99. A(C  18.C  17.C  23)          121.1630         0.405443   
    100. A(C  16.C  17.C  23)          119.7596         0.405738   
    101. A(C  17.C  18.H  19)          120.8468         0.351588   
    102. A(C  15.C  18.H  19)          118.8113         0.353349   
    103. A(C  15.C  18.C  17)          120.3409         0.427948   
    104. A(C  17.C  23.C  27)          128.2302         0.412091   
    105. A(N  24.C  23.C  27)          107.6657         0.437614   
    106. A(C  17.C  23.N  24)          124.1041         0.409907   
    107. A(C  23.N  24.N  25)          107.2860         0.430949   
    108. A(N  24.N  25.N  26)          110.1599         0.427014   
    109. A(C  27.N  26.C  28)          127.2798         0.406733   
    110. A(N  25.N  26.C  28)          124.2816         0.401299   
    111. A(N  25.N  26.C  27)          108.4378         0.433220   
    112. A(N  26.C  27.H  32)          125.0635         0.356684   
    113. A(C  23.C  27.H  32)          128.4858         0.356980   
    114. A(C  23.C  27.N  26)          106.4500         0.439598   
    115. A(H  30.C  28.C  31)          109.9308         0.320028   
    116. A(H  29.C  28.C  31)          109.5856         0.319842   
    117. A(N  26.C  28.C  31)          109.6649         0.370085   
    118. A(H  29.C  28.H  30)          108.5830         0.283580   
    119. A(N  26.C  28.H  30)          108.9372         0.325931   
    120. A(N  26.C  28.H  29)          110.1211         0.325740   
    121. A(C  28.C  31.C  37)          111.9662         0.362629   
    122. A(H  38.C  31.H  39)          108.6782         0.283464   
    123. A(C  37.C  31.H  39)          109.5490         0.319482   
    124. A(C  28.C  31.H  39)          108.9887         0.319864   
    125. A(C  37.C  31.H  38)          108.8172         0.319486   
    126. A(C  28.C  31.H  38)          108.7821         0.319868   
    127. A(H  35.C  33.H  36)          108.4678         0.284183   
    128. A(H  34.C  33.H  36)          110.2261         0.283924   
    129. A(O   2.C  33.H  36)          110.2278         0.342385   
    130. A(H  34.C  33.H  35)          108.5254         0.284233   
    131. A(O   2.C  33.H  35)          109.0119         0.342786   
    132. A(O   2.C  33.H  34)          110.3314         0.342449   
    133. A(C  41.C  37.H  42)          109.7219         0.319385   
    134. A(H  40.C  37.H  42)          108.8494         0.283474   
    135. A(C  31.C  37.H  42)          109.7241         0.319507   
    136. A(H  40.C  37.C  41)          109.2389         0.319350   
    137. A(C  31.C  37.C  41)          110.0981         0.362031   
    138. A(C  31.C  37.H  40)          109.1853         0.319472   
    139. A(H  44.C  41.C  45)          109.3313         0.319478   
    140. A(H  43.C  41.C  45)          108.7917         0.319451   
    141. A(C  37.C  41.C  45)          111.8151         0.362075   
    142. A(H  43.C  41.H  44)          108.6920         0.283369   
    143. A(C  37.C  41.H  44)          109.3009         0.319319   
    144. A(C  37.C  41.H  43)          108.8546         0.319292   
    145. A(C  47.C  45.H  48)          109.6596         0.319281   
    146. A(H  46.C  45.H  48)          108.8325         0.283469   
    147. A(C  41.C  45.H  48)          109.6028         0.319535   
    148. A(H  46.C  45.C  47)          109.2139         0.319259   
    149. A(C  41.C  45.C  47)          110.3105         0.361963   
    150. A(C  41.C  45.H  46)          109.1963         0.319513   
    151. A(H  50.C  47.C  51)          109.3278         0.319510   
    152. A(H  49.C  47.C  51)          108.9081         0.319486   
    153. A(C  45.C  47.C  51)          111.5477         0.361995   
    154. A(H  49.C  47.H  50)          108.7058         0.283379   
    155. A(C  45.C  47.H  50)          109.3019         0.319229   
    156. A(C  45.C  47.H  49)          109.0015         0.319205   
    157. A(C  53.C  51.H  54)          109.5087         0.319329   
    158. A(H  52.C  51.H  54)          108.8218         0.283454   
    159. A(C  47.C  51.H  54)          109.4380         0.319554   
    160. A(H  52.C  51.C  53)          109.2040         0.319305   
    161. A(C  47.C  51.C  53)          110.6228         0.362062   
    162. A(C  47.C  51.H  52)          109.2169         0.319530   
    163. A(H  56.C  53.C  57)          109.1594         0.320469   
    164. A(H  55.C  53.C  57)          108.9068         0.320463   
    165. A(C  51.C  53.C  57)          111.2076         0.363124   
    166. A(H  55.C  53.H  56)          108.7780         0.283498   
    167. A(C  51.C  53.H  56)          109.4555         0.319346   
    168. A(C  51.C  53.H  55)          109.2938         0.319341   
    169. A(S  59.C  57.H  60)          108.2171         0.332586   
    170. A(H  58.C  57.H  60)          107.3835         0.283940   
    171. A(C  53.C  57.H  60)          110.2838         0.320775   
    172. A(H  58.C  57.S  59)          109.0347         0.332487   
    173. A(C  53.C  57.S  59)          110.4679         0.378497   
    174. A(C  53.C  57.H  58)          111.3489         0.320681   
    175. A(C  57.S  59.H  61)           93.0337         0.350205   
    176. D(H   8.C   1.C   0.C   3)    179.9834         0.025000   
    177. D(H   8.C   1.C   0.O   2)     -0.1682         0.025000   
    178. D(C   4.C   1.C   0.C   3)     -0.2568         0.025000   
    179. D(C   4.C   1.C   0.O   2)    179.5916         0.025000   
    180. D(C  33.O   2.C   0.C   3)      1.1007         0.028761   
    181. D(C  33.O   2.C   0.C   1)   -178.7425         0.028761   
    182. D(C   6.C   3.C   0.C   1)      0.1509         0.022964   
    183. D(C   6.C   3.C   0.O   2)   -179.6914         0.022964   
    184. D(H   7.C   3.C   0.O   2)      0.1535         0.022964   
    185. D(H   7.C   3.C   0.C   1)    179.9958         0.022964   
    186. D(C   5.C   4.C   1.C   0)      0.1166         0.025457   
    187. D(H   9.C   4.C   1.H   8)      0.0152         0.025457   
    188. D(C   5.C   4.C   1.H   8)    179.8773         0.025457   
    189. D(H   9.C   4.C   1.C   0)   -179.7455         0.025457   
    190. D(C   6.C   5.C   4.C   1)      0.1318         0.023957   
    191. D(C   6.C   5.C   4.H   9)    179.9916         0.023957   
    192. D(N  11.C   5.C   4.C   1)   -179.3655         0.023957   
    193. D(N  11.C   5.C   4.H   9)      0.4943         0.023957   
    194. D(H  10.C   6.C   5.N  11)     -0.4134         0.025234   
    195. D(C   3.C   6.C   5.C   4)     -0.2373         0.025234   
    196. D(C   5.C   6.C   3.H   7)   -179.7525         0.025361   
    197. D(H  10.C   6.C   3.H   7)     -0.0672         0.025361   
    198. D(C   3.C   6.C   5.N  11)    179.2707         0.025234   
    199. D(H  10.C   6.C   3.C   0)    179.7813         0.025361   
    200. D(H  10.C   6.C   5.C   4)   -179.9213         0.025234   
    201. D(C   5.C   6.C   3.C   0)      0.0961         0.025361   
    202. D(N  12.N  11.C   5.C   6)   -177.4270         0.018323   
    203. D(N  12.N  11.C   5.C   4)      2.0716         0.018323   
    204. D(C  13.N  12.N  11.C   5)    174.7873         0.021079   
    205. D(C  15.C  13.N  12.N  11)      2.3355         0.018379   
    206. D(C  14.C  13.N  12.N  11)   -177.1429         0.018379   
    207. D(H  21.C  14.C  13.N  12)     -0.4783         0.025423   
    208. D(C  16.C  14.C  13.C  15)     -0.3105         0.025423   
    209. D(C  16.C  14.C  13.N  12)    179.1783         0.025423   
    210. D(H  21.C  14.C  13.C  15)   -179.9670         0.025423   
    211. D(C  18.C  15.C  13.C  14)      0.1186         0.023973   
    212. D(H  20.C  15.C  13.N  12)      0.4980         0.023973   
    213. D(C  18.C  15.C  13.N  12)   -179.3577         0.023973   
    214. D(H  20.C  15.C  13.C  14)    179.9742         0.023973   
    215. D(H  22.C  16.C  14.C  13)   -179.7543         0.025639   
    216. D(C  17.C  16.C  14.H  21)    179.8454         0.025639   
    217. D(C  17.C  16.C  14.C  13)      0.1873         0.025639   
    218. D(H  22.C  16.C  14.H  21)     -0.0963         0.025639   
    219. D(C  23.C  17.C  16.H  22)      0.2340         0.023927   
    220. D(C  23.C  17.C  16.C  14)   -179.7068         0.023927   
    221. D(C  18.C  17.C  16.H  22)   -179.9313         0.023927   
    222. D(C  18.C  17.C  16.C  14)      0.1280         0.023927   
    223. D(H  19.C  18.C  17.C  16)   -179.9653         0.023721   
    224. D(C  15.C  18.C  17.C  23)    179.5132         0.023721   
    225. D(C  15.C  18.C  17.C  16)     -0.3191         0.023721   
    226. D(H  19.C  18.C  15.H  20)     -0.0072         0.025242   
    227. D(H  19.C  18.C  15.C  13)    179.8507         0.025242   
    228. D(C  17.C  18.C  15.H  20)   -179.6605         0.025242   
    229. D(H  19.C  18.C  17.C  23)     -0.1330         0.023721   
    230. D(C  17.C  18.C  15.C  13)      0.1974         0.025242   
    231. D(C  27.C  23.C  17.C  18)      1.9174         0.013593   
    232. D(N  24.C  23.C  17.C  18)   -178.0496         0.013593   
    233. D(C  27.C  23.C  17.C  16)   -178.2513         0.013593   
    234. D(N  24.C  23.C  17.C  16)      1.7816         0.013593   
    235. D(N  25.N  24.C  23.C  27)     -0.0087         0.031014   
    236. D(N  25.N  24.C  23.C  17)    179.9641         0.031014   
    237. D(N  26.N  25.N  24.C  23)      0.1568         0.031060   
    238. D(C  27.N  26.N  25.N  24)     -0.2470         0.035392   
    239. D(C  28.N  26.N  25.N  24)    179.4537         0.035392   
    240. D(H  32.C  27.N  26.C  28)      0.2622         0.036168   
    241. D(H  32.C  27.N  26.N  25)    179.9514         0.036168   
    242. D(C  23.C  27.N  26.C  28)   -179.4569         0.036168   
    243. D(C  23.C  27.N  26.N  25)      0.2323         0.036168   
    244. D(H  32.C  27.C  23.N  24)   -179.8435         0.028815   
    245. D(H  32.C  27.C  23.C  17)      0.1851         0.028815   
    246. D(N  26.C  27.C  23.N  24)     -0.1372         0.028815   
    247. D(N  26.C  27.C  23.C  17)    179.8914         0.028815   
    248. D(C  31.C  28.N  26.C  27)    119.6806         0.015927   
    249. D(C  31.C  28.N  26.N  25)    -59.9626         0.015927   
    250. D(H  30.C  28.N  26.C  27)   -119.9665         0.015927   
    251. D(H  30.C  28.N  26.N  25)     60.3903         0.015927   
    252. D(H  29.C  28.N  26.C  27)     -0.9859         0.015927   
    253. D(H  29.C  28.N  26.N  25)    179.3709         0.015927   
    254. D(H  39.C  31.C  28.H  29)     60.9783         0.011098   
    255. D(H  39.C  31.C  28.N  26)    -60.0122         0.011098   
    256. D(H  38.C  31.C  28.H  30)    -61.4156         0.011098   
    257. D(H  38.C  31.C  28.H  29)    179.3217         0.011098   
    258. D(H  38.C  31.C  28.N  26)     58.3312         0.011098   
    259. D(C  37.C  31.C  28.H  30)     58.8845         0.011098   
    260. D(C  37.C  31.C  28.H  29)    -60.3782         0.011098   
    261. D(H  39.C  31.C  28.H  30)   -179.7590         0.011098   
    262. D(C  37.C  31.C  28.N  26)    178.6313         0.011098   
    263. D(H  36.C  33.O   2.C   0)     60.8046         0.027038   
    264. D(H  35.C  33.O   2.C   0)    179.7537         0.027038   
    265. D(H  34.C  33.O   2.C   0)    -61.1647         0.027038   
    266. D(H  42.C  37.C  31.H  39)    -60.5647         0.010946   
    267. D(H  42.C  37.C  31.H  38)   -179.2521         0.010946   
    268. D(H  42.C  37.C  31.C  28)     60.4683         0.010946   
    269. D(C  41.C  37.C  31.H  39)     60.2939         0.010946   
    270. D(C  41.C  37.C  31.H  38)    -58.3935         0.010946   
    271. D(C  41.C  37.C  31.C  28)   -178.6732         0.010946   
    272. D(H  40.C  37.C  31.H  39)   -179.7838         0.010946   
    273. D(H  40.C  37.C  31.H  38)     61.5288         0.010946   
    274. D(H  40.C  37.C  31.C  28)    -58.7509         0.010946   
    275. D(C  45.C  41.C  37.H  42)    -60.6362         0.010898   
    276. D(C  45.C  41.C  37.C  31)    178.5039         0.010898   
    277. D(H  44.C  41.C  37.H  42)     60.5606         0.010898   
    278. D(H  44.C  41.C  37.H  40)    179.8109         0.010898   
    279. D(H  44.C  41.C  37.C  31)    -60.2993         0.010898   
    280. D(H  43.C  41.C  37.H  42)    179.1424         0.010898   
    281. D(C  45.C  41.C  37.H  40)     58.6141         0.010898   
    282. D(H  43.C  41.C  37.H  40)    -61.6073         0.010898   
    283. D(H  43.C  41.C  37.C  31)     58.2825         0.010898   
    284. D(H  48.C  45.C  41.H  44)    -60.7325         0.010961   
    285. D(H  48.C  45.C  41.H  43)   -179.2952         0.010961   
    286. D(H  48.C  45.C  41.C  37)     60.4467         0.010961   
    287. D(C  47.C  45.C  41.H  44)     60.1060         0.010961   
    288. D(C  47.C  45.C  41.H  43)    -58.4566         0.010961   
    289. D(C  47.C  45.C  41.C  37)   -178.7148         0.010961   
    290. D(H  46.C  45.C  41.H  44)   -179.8651         0.010961   
    291. D(H  46.C  45.C  41.H  43)     61.5722         0.010961   
    292. D(H  46.C  45.C  41.C  37)    -58.6859         0.010961   
    293. D(C  51.C  47.C  45.H  48)    -60.3570         0.010861   
    294. D(C  51.C  47.C  45.H  46)     58.8202         0.010861   
    295. D(C  51.C  47.C  45.C  41)    178.8385         0.010861   
    296. D(H  50.C  47.C  45.H  48)     60.6626         0.010861   
    297. D(H  50.C  47.C  45.H  46)    179.8397         0.010861   
    298. D(H  50.C  47.C  45.C  41)    -60.1420         0.010861   
    299. D(H  49.C  47.C  45.H  48)    179.3478         0.010861   
    300. D(H  49.C  47.C  45.H  46)    -61.4751         0.010861   
    301. D(H  49.C  47.C  45.C  41)     58.5432         0.010861   
    302. D(H  52.C  51.C  47.C  45)    -58.9253         0.010972   
    303. D(H  54.C  51.C  47.H  49)   -179.5415         0.010972   
    304. D(H  54.C  51.C  47.C  45)     60.1084         0.010972   
    305. D(C  53.C  51.C  47.H  50)     59.8471         0.010972   
    306. D(C  53.C  51.C  47.H  49)    -58.7984         0.010972   
    307. D(C  53.C  51.C  47.C  45)   -179.1485         0.010972   
    308. D(H  52.C  51.C  47.H  50)   -179.9298         0.010972   
    309. D(H  54.C  51.C  47.H  50)    -60.8960         0.010972   
    310. D(H  52.C  51.C  47.H  49)     61.4248         0.010972   
    311. D(C  57.C  53.C  51.H  54)    -59.9663         0.010883   
    312. D(C  57.C  53.C  51.H  52)     59.1018         0.010883   
    313. D(C  57.C  53.C  51.C  47)    179.3326         0.010883   
    314. D(H  56.C  53.C  51.H  54)     60.7259         0.010883   
    315. D(H  56.C  53.C  51.H  52)    179.7940         0.010883   
    316. D(H  56.C  53.C  51.C  47)    -59.9752         0.010883   
    317. D(H  55.C  53.C  51.H  54)    179.7627         0.010883   
    318. D(H  55.C  53.C  51.H  52)    -61.1691         0.010883   
    319. D(H  55.C  53.C  51.C  47)     59.0617         0.010883   
    320. D(H  60.C  57.C  53.H  56)    -60.7665         0.011333   
    321. D(H  60.C  57.C  53.H  55)   -179.4007         0.011333   
    322. D(H  60.C  57.C  53.C  51)     60.0998         0.011333   
    323. D(S  59.C  57.C  53.H  56)     58.8171         0.011333   
    324. D(S  59.C  57.C  53.H  55)    -59.8171         0.011333   
    325. D(S  59.C  57.C  53.C  51)    179.6835         0.011333   
    326. D(H  58.C  57.C  53.H  56)   -179.8737         0.011333   
    327. D(H  58.C  57.C  53.H  55)     61.4921         0.011333   
    328. D(H  58.C  57.C  53.C  51)    -59.0074         0.011333   
    329. D(H  61.S  59.C  57.H  60)   -163.4053         0.003432   
    330. D(H  61.S  59.C  57.H  58)    -46.9007         0.003432   
    331. D(H  61.S  59.C  57.C  53)     75.7712         0.003432   
    -----------------------------------------------------------------

Number of atoms                         .... 62
Number of degrees of freedom            .... 331

         *************************************************************
         *                GEOMETRY OPTIMIZATION CYCLE   1            *
         *************************************************************
---------------------------------
CARTESIAN COORDINATES (ANGSTROEM)
---------------------------------
  C      0.046120    0.213190    0.716880
  C      0.204730   -1.046920    0.127660
  O      0.016910    0.296340    2.073630
  C     -0.080680    1.348100   -0.112020
  C      0.232100   -1.183040   -1.263170
  C      0.102590   -0.051430   -2.086800
  C     -0.050910    1.210570   -1.503150
  H     -0.204640    2.336160    0.309690
  H      0.303440   -1.926100    0.752100
  H      0.351740   -2.169080   -1.693160
  H     -0.152710    2.088080   -2.129640
  N      0.113750   -0.163610   -3.500320
  N      0.209250   -1.385550   -4.122070
  C      0.111810   -1.514610   -5.530420
  C      0.156340   -2.790340   -6.100240
  C     -0.038960   -0.390810   -6.360950
  C      0.045610   -2.951060   -7.483360
  C     -0.108070   -1.832490   -8.320810
  C     -0.146070   -0.548640   -7.746720
  H     -0.263780    0.331370   -8.363850
  H     -0.076170    0.605580   -5.939900
  H      0.271730   -3.662290   -5.468360
  H      0.079050   -3.950130   -7.899670
  C     -0.230580   -2.021440   -9.785060
  N     -0.239830   -3.225990  -10.394740
  N     -0.363800   -3.007810  -11.695770
  N     -0.430370   -1.707630  -11.936060
  C     -0.353720   -1.054640  -10.764700
  C     -0.558260   -1.122820  -13.268030
  H     -0.604410   -0.013590  -13.196170
  H     -1.499820   -1.487140  -13.733070
  C      0.640420   -1.531870  -14.127420
  H     -0.381290    0.020690  -10.649660
  C     -0.157000    1.459850    2.794990
  H      0.666350    2.173880    2.580140
  H     -0.141460    1.219460    3.877730
  H     -1.138290    1.920270    2.550720
  C      0.542670   -0.972620  -15.550970
  H      0.681020   -2.642250  -14.180150
  H      1.573290   -1.163730  -13.646120
  H     -0.393800   -1.341170  -16.025030
  C      1.745370   -1.434480  -16.382210
  H      0.514750    0.138760  -15.516570
  H      1.768360   -2.546930  -16.394130
  H      2.682430   -1.063500  -15.910840
  C      1.668380   -0.926840  -17.826020
  H      0.729650   -1.296960  -18.294310
  C      2.869460   -1.434380  -18.633540
  H      1.657550    0.185410  -17.830450
  H      2.876440   -2.546860  -18.612040
  H      3.809120   -1.062600  -18.168070
  C      2.805860   -0.966320  -20.091160
  H      1.865140   -1.337940  -20.554360
  C      4.004270   -1.502570  -20.883390
  H      2.806840    0.145570  -20.123290
  H      4.002260   -2.614210  -20.845330
  H      4.947290   -1.130360  -20.425890
  C      3.945470   -1.057180  -22.343410
  H      3.013790   -1.408790  -22.836380
  S      5.380230   -1.696160  -23.261770
  H      3.957260    0.051520  -22.408520
  H      4.852330   -3.000340  -23.326760

----------------------------
CARTESIAN COORDINATES (A.U.)
----------------------------
  NO LB      ZA    FRAG     MASS         X           Y           Z
   0 C     6.0000    0    12.011    0.087154    0.402871    1.354707
   1 C     6.0000    0    12.011    0.386884   -1.978392    0.241242
   2 O     8.0000    0    15.999    0.031955    0.560001    3.918593
   3 C     6.0000    0    12.011   -0.152463    2.547540   -0.211687
   4 C     6.0000    0    12.011    0.438605   -2.235622   -2.387045
   5 C     6.0000    0    12.011    0.193867   -0.097189   -3.943480
   6 C     6.0000    0    12.011   -0.096206    2.287646   -2.840542
   7 H     1.0000    0     1.008   -0.386714    4.414703    0.585229
   8 H     1.0000    0     1.008    0.573418   -3.639802    1.421263
   9 H     1.0000    0     1.008    0.664692   -4.098967   -3.199609
  10 H     1.0000    0     1.008   -0.288580    3.945899   -4.024436
  11 N     7.0000    0    14.007    0.214956   -0.309178   -6.614646
  12 N     7.0000    0    14.007    0.395425   -2.618310   -7.789583
  13 C     6.0000    0    12.011    0.211290   -2.862198  -10.450979
  14 C     6.0000    0    12.011    0.295440   -5.272978  -11.527783
  15 C     6.0000    0    12.011   -0.073624   -0.738524  -12.020453
  16 C     6.0000    0    12.011    0.086190   -5.576695  -14.141501
  17 C     6.0000    0    12.011   -0.204223   -3.462904  -15.724052
  18 C     6.0000    0    12.011   -0.276032   -1.036779  -14.639179
  19 H     1.0000    0     1.008   -0.498472    0.626199  -15.805386
  20 H     1.0000    0     1.008   -0.143940    1.144380  -11.224784
  21 H     1.0000    0     1.008    0.513495   -6.920725  -10.333703
  22 H     1.0000    0     1.008    0.149383   -7.464664  -14.928213
  23 C     6.0000    0    12.011   -0.435733   -3.819968  -18.491084
  24 N     7.0000    0    14.007   -0.453213   -6.096238  -19.643212
  25 N     7.0000    0    14.007   -0.687482   -5.683937  -22.101802
  26 N     7.0000    0    14.007   -0.813281   -3.226953  -22.555885
  27 C     6.0000    0    12.011   -0.668434   -1.992981  -20.342335
  28 C     6.0000    0    12.011   -1.054959   -2.121822  -25.072943
  29 H     1.0000    0     1.008   -1.142169   -0.025681  -24.937147
  30 H     1.0000    0     1.008   -2.834249   -2.810287  -25.951741
  31 C     6.0000    0    12.011    1.210218   -2.894815  -26.696955
  32 H     1.0000    0     1.008   -0.720534    0.039098  -20.124941
  33 C     6.0000    0    12.011   -0.296687    2.758717    5.281766
  34 H     1.0000    0     1.008    1.259219    4.108038    4.875758
  35 H     1.0000    0     1.008   -0.267321    2.304445    7.327848
  36 H     1.0000    0     1.008   -2.151056    3.628784    4.820162
  37 C     6.0000    0    12.011    1.025498   -1.837985  -29.387074
  38 H     1.0000    0     1.008    1.286941   -4.993129  -26.796600
  39 H     1.0000    0     1.008    2.973087   -2.199131  -25.787430
  40 H     1.0000    0     1.008   -0.744174   -2.534444  -30.282918
  41 C     6.0000    0    12.011    3.298271   -2.710774  -30.957890
  42 H     1.0000    0     1.008    0.972737    0.262218  -29.322068
  43 H     1.0000    0     1.008    3.341716   -4.813000  -30.980416
  44 H     1.0000    0     1.008    5.069058   -2.009724  -30.067130
  45 C     6.0000    0    12.011    3.152781   -1.751474  -33.686296
  46 H     1.0000    0     1.008    1.378839   -2.450899  -34.571236
  47 C     6.0000    0    12.011    5.422494   -2.710585  -35.212288
  48 H     1.0000    0     1.008    3.132316    0.350374  -33.694667
  49 H     1.0000    0     1.008    5.435684   -4.812868  -35.171658
  50 H     1.0000    0     1.008    7.198194   -2.008023  -34.332677
  51 C     6.0000    0    12.011    5.302307   -1.826080  -37.966790
  52 H     1.0000    0     1.008    3.524604   -2.528340  -38.842111
  53 C     6.0000    0    12.011    7.566974   -2.839446  -39.463888
  54 H     1.0000    0     1.008    5.304159    0.275087  -38.027507
  55 H     1.0000    0     1.008    7.563175   -4.940141  -39.391965
  56 H     1.0000    0     1.008    9.349023   -2.136071  -38.599338
  57 C     6.0000    0    12.011    7.455858   -1.997781  -42.222926
  58 H     1.0000    0     1.008    5.695238   -2.662227  -43.154504
  59 S    16.0000    0    32.060   10.167161   -3.205278  -43.958375
  60 H     1.0000    0     1.008    7.478138    0.097359  -42.345966
  61 H     1.0000    0     1.008    9.169575   -5.669821  -44.081188

--------------------------------
INTERNAL COORDINATES (ANGSTROEM)
--------------------------------
 C      0   0   0     0.000000000000     0.00000000     0.00000000
 C      1   0   0     1.400076623832     0.00000000     0.00000000
 O      1   2   0     1.359609395782   118.51837055     0.00000000
 C      1   2   3     1.411089705901   119.13313500   180.15166119
 C      2   1   3     1.397743130979   120.57295722   179.59158757
 C      5   2   1     1.405588990103   120.18955867     0.11663967
 C      4   1   2     1.398228676111   120.22611628     0.15091078
 H      4   1   2     1.081419423397   121.06941768   179.99578033
 H      2   1   3     1.082878779042   119.89230564   359.83178872
 H      5   2   1     1.082349301889   119.09075172   180.25453400
 H      7   4   1     1.082994349108   119.59352901   179.78134126
 N      6   5   2     1.418008352726   121.31195778   180.63445544
 N     12   6   5     1.374347363697   121.45639273     2.07157100
 C     13  12   6     1.417603879686   121.70946024   174.78729533
 C     14  13  12     1.397914441659   119.06847939   182.85707516
 C     14  13  12     1.405502797507   121.44200977     2.33546853
 C     15  14  13     1.396822460336   120.40452659   179.17828846
 C     17  15  14     1.405752072664   120.46407580     0.18731912
 C     16  14  13     1.398835713692   120.22468545   180.64234395
 H     19  16  14     1.081259765782   118.81130256   179.85066794
 H     16  14  13     1.082340389480   120.65638764     0.49796905
 H     15  14  13     1.082997686516   120.02116084   359.52174887
 H     17  15  14     1.082854152044   118.97285621   180.24566287
 C     18  17  15     1.481465107622   119.75959517   180.29324984
 N     24  18  17     1.350087392505   124.10410641     1.78161507
 N     25  24  18     1.325009484570   107.28599237   179.96409861
 N     26  25  24     1.323872683229   110.15990208     0.15680616
 C     27  26  25     1.343262972094   108.43783976   359.75298460
 C     27  26  25     1.460309100533   124.28158812   179.45370121
 H     29  27  26     1.112512865094   110.12109453   179.37089942
 H     29  27  26     1.111542395773   108.93717092    60.39028304
 C     29  27  26     1.530590349179   109.66494989   300.03743687
 H     28  27  26     1.081817413153   125.06348280   179.95144791
 C      3   1   2     1.379985673042   125.16281395   181.25754811
 H     34   3   1     1.110812579106   110.33142697   298.83532081
 H     34   3   1     1.109213573348   109.01186888   179.75369064
 H     34   3   1     1.111118568561   110.22777470    60.80456819
 C     32  29  27     1.532582861545   111.96619440   178.63131596
 H     32  29  27     1.112372490356   108.78214580    58.33122606
 H     32  29  27     1.112395247428   108.98865487   299.98779136
 H     38  32  29     1.112446873788   109.18527274   301.24912523
 C     38  32  29     1.533219451742   110.09807557   181.32684919
 H     38  32  29     1.112262734609   109.72406505    60.46825222
 H     42  38  32     1.112751377892   108.85462968    58.28250096
 H     42  38  32     1.112608323221   109.30085955   299.70068331
 C     42  38  32     1.532388053268   111.81508141   178.50385789
 H     46  42  38     1.112429032074   109.19632747   301.31410173
 C     46  42  38     1.533713978681   110.31047359   181.28523303
 H     46  42  38     1.112311546420   109.60277047    60.44667874
 H     48  46  42     1.112709630047   109.00150574    58.54319910
 H     48  46  42     1.112584201263   109.30185583   299.85801301
 C     48  46  42     1.532247104093   111.54772584   178.83845278
 H     52  48  46     1.112479115669   109.21691317   301.07469802
 C     52  48  46     1.533420674016   110.62277982   180.85153375
 H     52  48  46     1.112354561010   109.43800085    60.10843186
 H     54  52  48     1.112293168773   109.29381106    59.06173844
 H     54  52  48     1.112264921006   109.45548738   300.02484565
 C     54  52  48     1.527575887640   111.20759301   179.33264606
 H     58  54  52     1.111160040408   111.34889814   300.99264310
 S     58  54  52     1.819400117511   110.46794248   179.68345626
 H     58  54  52     1.110672771882   110.28375103    60.09980982
 H     60  58  54     1.408469943769    93.03369158    75.77115571

---------------------------
INTERNAL COORDINATES (A.U.)
---------------------------
 C      0   0   0     0.000000000000     0.00000000     0.00000000
 C      1   0   0     2.645761385547     0.00000000     0.00000000
 O      1   2   0     2.569289407135   118.51837055     0.00000000
 C      1   2   3     2.666573094549   119.13313500   180.15166119
 C      2   1   3     2.641351723121   120.57295722   179.59158757
 C      5   2   1     2.656178248150   120.18955867     0.11663967
 C      4   1   2     2.642269270446   120.22611628     0.15091078
 H      4   1   2     2.043586546123   121.06941768   179.99578033
 H      2   1   3     2.046344328625   119.89230564   359.83178872
 H      5   2   1     2.045343761811   119.09075172   180.25453400
 H      7   4   1     2.046562724399   119.59352901   179.78134126
 N      6   5   2     2.679647442264   121.31195778   180.63445544
 N     12   6   5     2.597140130263   121.45639273     2.07157100
 C     13  12   6     2.678883098990   121.70946024   174.78729533
 C     14  13  12     2.641675453390   119.06847939   182.85707516
 C     14  13  12     2.656015367748   121.44200977     2.33546853
 C     15  14  13     2.639611907746   120.40452659   179.17828846
 C     17  15  14     2.656486429528   120.46407580     0.18731912
 C     16  14  13     2.643416405226   120.22468545   180.64234395
 H     19  16  14     2.043284836957   118.81130256   179.85066794
 H     16  14  13     2.045326919799   120.65638764     0.49796905
 H     15  14  13     2.046569031186   120.02116084   359.52174887
 H     17  15  14     2.046297790344   118.97285621   180.24566287
 C     18  17  15     2.799563330365   119.75959517   180.29324984
 N     24  18  17     2.551295428694   124.10410641     1.78161507
 N     25  24  18     2.503905050685   107.28599237   179.96409861
 N     26  25  24     2.501756807482   110.15990208     0.15680616
 C     27  26  25     2.538399143096   108.43783976   359.75298460
 C     27  26  25     2.759584270881   124.28158812   179.45370121
 H     29  27  26     2.102344635492   110.12109453   179.37089942
 H     29  27  26     2.100510714253   108.93717092    60.39028304
 C     29  27  26     2.892396583171   109.66494989   300.03743687
 H     28  27  26     2.044338637765   125.06348280   179.95144791
 C      3   1   2     2.607794990784   125.16281395   181.25754811
 H     34   3   1     2.099131560625   110.33142697   298.83532081
 H     34   3   1     2.096109877656   109.01186888   179.75369064
 H     34   3   1     2.099709796894   110.22777470    60.80456819
 C     32  29  27     2.896161885860   111.96619440   178.63131596
 H     32  29  27     2.102079365680   108.78214580    58.33122606
 H     32  29  27     2.102122370314   108.98865487   299.98779136
 H     38  32  29     2.102219929996   109.18527274   301.24912523
 C     38  32  29     2.897364866993   110.09807557   181.32684919
 H     38  32  29     2.101871957377   109.72406505    60.46825222
 H     42  38  32     2.102795359359   108.85462968    58.28250096
 H     42  38  32     2.102525025208   109.30085955   299.70068331
 C     42  38  32     2.895793751570   111.81508141   178.50385789
 H     46  42  38     2.102186214042   109.19632747   301.31410173
 C     46  42  38     2.898299387473   110.31047359   181.28523303
 H     46  42  38     2.101964198333   109.60277047    60.44667874
 H     48  46  42     2.102716467366   109.00150574    58.54319910
 H     48  46  42     2.102479441315   109.30185583   299.85801301
 C     48  46  42     2.895527396229   111.54772584   178.83845278
 H     52  48  46     2.102280858322   109.21691317   301.07469802
 C     52  48  46     2.897745121983   110.62277982   180.85153375
 H     52  48  46     2.102045484127   109.43800085    60.10843186
 H     54  52  48     2.101929469613   109.29381106    59.06173844
 H     54  52  48     2.101876089068   109.45548738   300.02484565
 C     54  52  48     2.886700076422   111.20759301   179.33264606
 H     58  54  52     2.099788167328   111.34889814   300.99264310
 S     58  54  52     3.438167950120   110.46794248   179.68345626
 H     58  54  52     2.098867363260   110.28375103    60.09980982
 H     60  58  54     2.661622461582    93.03369158    75.77115571

---------------------
BASIS SET INFORMATION
---------------------
There are 5 groups of distinct atoms

 Group   1 Type C   : 11s6p2d1f contracted to 5s3p2d1f pattern {62111/411/11/1}
 Group   2 Type O   : 11s6p2d1f contracted to 5s3p2d1f pattern {62111/411/11/1}
 Group   3 Type H   : 5s1p contracted to 3s1p pattern {311/1}
 Group   4 Type N   : 11s6p2d1f contracted to 5s3p2d1f pattern {62111/411/11/1}
 Group   5 Type S   : 14s9p3d1f contracted to 5s5p2d1f pattern {73211/51111/21/1}

Atom   0C    basis set group =>   1
Atom   1C    basis set group =>   1
Atom   2O    basis set group =>   2
Atom   3C    basis set group =>   1
Atom   4C    basis set group =>   1
Atom   5C    basis set group =>   1
Atom   6C    basis set group =>   1
Atom   7H    basis set group =>   3
Atom   8H    basis set group =>   3
Atom   9H    basis set group =>   3
Atom  10H    basis set group =>   3
Atom  11N    basis set group =>   4
Atom  12N    basis set group =>   4
Atom  13C    basis set group =>   1
Atom  14C    basis set group =>   1
Atom  15C    basis set group =>   1
Atom  16C    basis set group =>   1
Atom  17C    basis set group =>   1
Atom  18C    basis set group =>   1
Atom  19H    basis set group =>   3
Atom  20H    basis set group =>   3
Atom  21H    basis set group =>   3
Atom  22H    basis set group =>   3
Atom  23C    basis set group =>   1
Atom  24N    basis set group =>   4
Atom  25N    basis set group =>   4
Atom  26N    basis set group =>   4
Atom  27C    basis set group =>   1
Atom  28C    basis set group =>   1
Atom  29H    basis set group =>   3
Atom  30H    basis set group =>   3
Atom  31C    basis set group =>   1
Atom  32H    basis set group =>   3
Atom  33C    basis set group =>   1
Atom  34H    basis set group =>   3
Atom  35H    basis set group =>   3
Atom  36H    basis set group =>   3
Atom  37C    basis set group =>   1
Atom  38H    basis set group =>   3
Atom  39H    basis set group =>   3
Atom  40H    basis set group =>   3
Atom  41C    basis set group =>   1
Atom  42H    basis set group =>   3
Atom  43H    basis set group =>   3
Atom  44H    basis set group =>   3
Atom  45C    basis set group =>   1
Atom  46H    basis set group =>   3
Atom  47C    basis set group =>   1
Atom  48H    basis set group =>   3
Atom  49H    basis set group =>   3
Atom  50H    basis set group =>   3
Atom  51C    basis set group =>   1
Atom  52H    basis set group =>   3
Atom  53C    basis set group =>   1
Atom  54H    basis set group =>   3
Atom  55H    basis set group =>   3
Atom  56H    basis set group =>   3
Atom  57C    basis set group =>   1
Atom  58H    basis set group =>   3
Atom  59S    basis set group =>   5
Atom  60H    basis set group =>   3
Atom  61H    basis set group =>   3
---------------------------------
AUXILIARY/J BASIS SET INFORMATION
---------------------------------
There are 5 groups of distinct atoms

 Group   1 Type C   : 12s5p4d2f1g contracted to 6s4p3d1f1g pattern {711111/2111/211/2/1}
 Group   2 Type O   : 12s5p4d2f1g contracted to 6s4p3d1f1g pattern {711111/2111/211/2/1}
 Group   3 Type H   : 5s2p1d contracted to 3s1p1d pattern {311/2/1}
 Group   4 Type N   : 12s5p4d2f1g contracted to 6s4p3d1f1g pattern {711111/2111/211/2/1}
 Group   5 Type S   : 14s5p5d2f1g contracted to 8s4p3d1f1g pattern {71111111/2111/311/2/1}

Atom   0C    basis set group =>   1
Atom   1C    basis set group =>   1
Atom   2O    basis set group =>   2
Atom   3C    basis set group =>   1
Atom   4C    basis set group =>   1
Atom   5C    basis set group =>   1
Atom   6C    basis set group =>   1
Atom   7H    basis set group =>   3
Atom   8H    basis set group =>   3
Atom   9H    basis set group =>   3
Atom  10H    basis set group =>   3
Atom  11N    basis set group =>   4
Atom  12N    basis set group =>   4
Atom  13C    basis set group =>   1
Atom  14C    basis set group =>   1
Atom  15C    basis set group =>   1
Atom  16C    basis set group =>   1
Atom  17C    basis set group =>   1
Atom  18C    basis set group =>   1
Atom  19H    basis set group =>   3
Atom  20H    basis set group =>   3
Atom  21H    basis set group =>   3
Atom  22H    basis set group =>   3
Atom  23C    basis set group =>   1
Atom  24N    basis set group =>   4
Atom  25N    basis set group =>   4
Atom  26N    basis set group =>   4
Atom  27C    basis set group =>   1
Atom  28C    basis set group =>   1
Atom  29H    basis set group =>   3
Atom  30H    basis set group =>   3
Atom  31C    basis set group =>   1
Atom  32H    basis set group =>   3
Atom  33C    basis set group =>   1
Atom  34H    basis set group =>   3
Atom  35H    basis set group =>   3
Atom  36H    basis set group =>   3
Atom  37C    basis set group =>   1
Atom  38H    basis set group =>   3
Atom  39H    basis set group =>   3
Atom  40H    basis set group =>   3
Atom  41C    basis set group =>   1
Atom  42H    basis set group =>   3
Atom  43H    basis set group =>   3
Atom  44H    basis set group =>   3
Atom  45C    basis set group =>   1
Atom  46H    basis set group =>   3
Atom  47C    basis set group =>   1
Atom  48H    basis set group =>   3
Atom  49H    basis set group =>   3
Atom  50H    basis set group =>   3
Atom  51C    basis set group =>   1
Atom  52H    basis set group =>   3
Atom  53C    basis set group =>   1
Atom  54H    basis set group =>   3
Atom  55H    basis set group =>   3
Atom  56H    basis set group =>   3
Atom  57C    basis set group =>   1
Atom  58H    basis set group =>   3
Atom  59S    basis set group =>   5
Atom  60H    basis set group =>   3
Atom  61H    basis set group =>   3


           ************************************************************
           *        Program running with 24 parallel MPI-processes    *
           *              working on a common directory               *
           ************************************************************
------------------------------------------------------------------------------
                           ORCA GTO INTEGRAL CALCULATION
                           -- RI-GTO INTEGRALS CHOSEN --
------------------------------------------------------------------------------

                         BASIS SET STATISTICS AND STARTUP INFO

Gaussian basis set:
 # of primitive gaussian shells          ...  813
 # of primitive gaussian functions       ... 1691
 # of contracted shells                  ...  467
 # of contracted basis functions         ... 1153
 Highest angular momentum                ...    3
 Maximum contraction depth               ...    7
Auxiliary gaussian basis set:
 # of primitive gaussian shells          ...  995
 # of primitive gaussian functions       ... 2673
 # of contracted shells                  ...  622
 # of contracted aux-basis functions     ... 1862
 Highest angular momentum                ...    4
 Maximum contraction depth               ...    7
Ratio of auxiliary to basis functions    ...  1.61
Integral package used                  ... LIBINT
 One Electron integrals                  ... done
 Ordering auxiliary basis shells         ... done
 Integral threshhold             Thresh  ...  2.500e-11
 Primitive cut-off               TCut    ...  2.500e-12
 Pre-screening matrix                    ... done
 Shell pair data                         ... 
 Ordering of the shell pairs             ... done (   0.007 sec) 43537 of 109278 pairs
 Determination of significant pairs      ... done (   0.000 sec)
 Creation of shell pair data             ... done (   0.008 sec)
 Storage of shell pair data              ... done (   0.006 sec)
 Shell pair data done in (   0.021 sec)
 Computing two index integrals           ... done
 Cholesky decomposition of the V-matrix  ... done


Timings:
 Total evaluation time                   ...   0.824 sec (  0.014 min)
 One electron matrix time                ...   0.098 sec (  0.002 min) = 11.8%
 Schwartz matrix evaluation time         ...   0.123 sec (  0.002 min) = 14.9%
 Two index repulsion integral time       ...   0.408 sec (  0.007 min) = 49.5%
 Cholesky decomposition of V             ...   0.066 sec (  0.001 min) =  8.0%
 Three index repulsion integral time     ...   0.039 sec (  0.001 min) =  4.8%


Maximum memory used throughout the entire GTOINT-calculation: 30.7 MB


           ************************************************************
           *        Program running with 24 parallel MPI-processes    *
           *              working on a common directory               *
           ************************************************************
-------------------------------------------------------------------------------
                                 ORCA SCF
-------------------------------------------------------------------------------

------------
SCF SETTINGS
------------
Hamiltonian:
 Density Functional     Method          .... DFT(GTOs)
 Exchange Functional    Exchange        .... B88
   X-Alpha parameter    XAlpha          ....  0.666667
   Becke's b parameter  XBeta           ....  0.004200
 Correlation Functional Correlation     .... LYP
 LDA part of GGA corr.  LDAOpt          .... VWN-5
 Gradients option       PostSCFGGA      .... off
 Hybrid DFT is turned on
   Fraction HF Exchange ScalHFX         ....  0.200000
   Scaling of DF-GGA-X  ScalDFX         ....  0.720000
   Scaling of DF-GGA-C  ScalDFC         ....  0.810000
   Scaling of DF-LDA-C  ScalLDAC        ....  1.000000
   Perturbative correction              ....  0.000000
   Density functional embedding theory  .... OFF
   NL short-range parameter             ....  4.800000
 RI-approximation to the Coulomb term is turned on
   Number of auxiliary basis functions  .... 1862
   RIJ-COSX (HFX calculated with COS-X)).... on


General Settings:
 Integral files         IntName         .... b3lyp
 Hartree-Fock type      HFTyp           .... RHF
 Total Charge           Charge          ....    0
 Multiplicity           Mult            ....    1
 Number of Electrons    NEL             ....  234
 Basis Dimension        Dim             .... 1153
 Nuclear Repulsion      ENuc            ....   2557.3328369685 Eh

Convergence Acceleration:
 DIIS                   CNVDIIS         .... on
   Start iteration      DIISMaxIt       ....    12
   Startup error        DIISStart       ....  0.200000
   # of expansion vecs  DIISMaxEq       ....     5
   Bias factor          DIISBfac        ....   1.050
   Max. coefficient     DIISMaxC        ....  10.000
 Trust-Rad. Augm. Hess. CNVTRAH         .... auto
   Auto Start max. grad ratio tolerance .... 10.000000
   Auto Start iteration difference      ....    10
   Max. Number of Micro iterations      ....    16
   Max. Number of Macro iterations      ....    64
   Number of Davidson start vectors     ....     2
   Converg. threshold (gradient norm)   ....   0.000
   Grad. Scal. Fac. for Micro threshold ....   0.100
   Minimum threshold for Micro iter.    ....   0.010
   NR start threshold (gradient norm)   ....   0.001
   Initial trust radius                 ....   0.400
   Minimum AH scaling param. (alpha)    ....   1.000
   Maximum AH scaling param. (alpha)    .... 1000.000
   Orbital update algorithm             .... Taylor
 SOSCF                  CNVSOSCF        .... on
   Start iteration      SOSCFMaxIt      ....   150
   Startup grad/error   SOSCFStart      ....  0.003300
 Level Shifting         CNVShift        .... on
   Level shift para.    LevelShift      ....    0.2500
   Turn off err/grad.   ShiftErr        ....    0.0010
 Zerner damping         CNVZerner       .... off
 Static damping         CNVDamp         .... on
   Fraction old density DampFac         ....    0.7000
   Max. Damping (<1)    DampMax         ....    0.9800
   Min. Damping (>=0)   DampMin         ....    0.0000
   Turn off err/grad.   DampErr         ....    0.1000
 Fernandez-Rico         CNVRico         .... off

SCF Procedure:
 Maximum # iterations   MaxIter         ....   125
 SCF integral mode      SCFMode         .... Direct
   Integral package                     .... LIBINT
 Reset frequency        DirectResetFreq ....    20
 Integral Threshold     Thresh          ....  2.500e-11 Eh
 Primitive CutOff       TCut            ....  2.500e-12 Eh

Convergence Tolerance:
 Convergence Check Mode ConvCheckMode   .... Total+1el-Energy
 Convergence forced     ConvForced      .... 0
 Energy Change          TolE            ....  1.000e-08 Eh
 1-El. energy change                    ....  1.000e-05 Eh
 Orbital Gradient       TolG            ....  1.000e-05
 Orbital Rotation angle TolX            ....  1.000e-05
 DIIS Error             TolErr          ....  5.000e-07


Diagonalization of the overlap matrix:
Smallest eigenvalue                        ... 7.548e-06
Time for diagonalization                   ...    0.291 sec
Threshold for overlap eigenvalues          ... 1.000e-08
Number of eigenvalues below threshold      ... 0
Time for construction of square roots      ...    0.189 sec
Total time needed                          ...    0.492 sec

-------------------
DFT GRID GENERATION
-------------------

General Integration Accuracy     IntAcc      ... 4.388
Radial Grid Type                 RadialGrid  ... New-Gauss-Chebyshev
Angular Grid (max. acc.)         AngularGrid ... Lebedev-302
Angular grid pruning method      GridPruning ... 4 (adaptive)
Weight generation scheme         WeightScheme... Becke
Basis function cutoff            BFCut       ... 1.0000e-11
Integration weight cutoff        WCut        ... 1.0000e-14
Angular grids for H and He will be reduced by one unit

Total number of grid points                  ...   285828
Total number of batches                      ...     4504
Average number of points per batch           ...       63
Average number of grid points per atom       ...     4610
Time for grid setup =    2.157 sec

------------------------------
INITIAL GUESS: MODEL POTENTIAL
------------------------------
Loading Hartree-Fock densities                     ... done
Calculating cut-offs                               ... done
Setting up the integral package                    ... done
Initializing the effective Hamiltonian             ... done
Starting the Coulomb interaction                   ... done (   0.2 sec)
Reading the grid                                   ... done
Mapping shells                                     ... done
Starting the XC term evaluation                    ... done (   0.4 sec)
  promolecular density results
     # of electrons  =    233.985381471
     EX              =   -198.623739190
     EC              =     -7.973351826
     EX+EC           =   -206.597091017
Transforming the Hamiltonian                       ... done (   0.2 sec)
Diagonalizing the Hamiltonian                      ... done (   0.3 sec)
Back transforming the eigenvectors                 ... done (   0.1 sec)
Now organizing SCF variables                       ... done
                      ------------------
                      INITIAL GUESS DONE (   3.6 sec)
                      ------------------
--------------------
COSX GRID GENERATION
--------------------

GRIDX 1
-------
General Integration Accuracy     IntAcc      ... 3.816
Radial Grid Type                 RadialGrid  ... New-Gauss-Chebyshev
Angular Grid (max. acc.)         AngularGrid ... Lebedev-50
Angular grid pruning method      GridPruning ... 4 (adaptive)
Weight generation scheme         WeightScheme... Becke
Basis function cutoff            BFCut       ... 1.0000e-11
Integration weight cutoff        WCut        ... 1.0000e-14
Angular grids for H and He will be reduced by one unit

Total number of grid points                  ...    36325
Total number of batches                      ...      602
Average number of points per batch           ...       60
Average number of grid points per atom       ...      586
UseSFitting                                  ... on

GRIDX 2
-------
General Integration Accuracy     IntAcc      ... 4.020
Radial Grid Type                 RadialGrid  ... New-Gauss-Chebyshev
Angular Grid (max. acc.)         AngularGrid ... Lebedev-110
Angular grid pruning method      GridPruning ... 4 (adaptive)
Weight generation scheme         WeightScheme... Becke
Basis function cutoff            BFCut       ... 1.0000e-11
Integration weight cutoff        WCut        ... 1.0000e-14
Angular grids for H and He will be reduced by one unit

Total number of grid points                  ...    77870
Total number of batches                      ...     1245
Average number of points per batch           ...       62
Average number of grid points per atom       ...     1256
UseSFitting                                  ... on

GRIDX 3
-------
General Integration Accuracy     IntAcc      ... 4.338
Radial Grid Type                 RadialGrid  ... New-Gauss-Chebyshev
Angular Grid (max. acc.)         AngularGrid ... Lebedev-194
Angular grid pruning method      GridPruning ... 4 (adaptive)
Weight generation scheme         WeightScheme... Becke
Basis function cutoff            BFCut       ... 1.0000e-11
Integration weight cutoff        WCut        ... 1.0000e-14
Angular grids for H and He will be reduced by one unit

Total number of grid points                  ...   170880
Total number of batches                      ...     2703
Average number of points per batch           ...       63
Average number of grid points per atom       ...     2756
UseSFitting                                  ... on

Time for X-Grid setup             =    2.104 sec

--------------
SCF ITERATIONS
--------------
ITER       Energy         Delta-E        Max-DP      RMS-DP      [F.P]     Damp
               ***  Starting incremental Fock matrix formation  ***
  0  -1679.2297313825   0.000000000000 0.13227796  0.00103041  0.1726761 0.7000
  1  -1679.5474136340  -0.317682251423 0.18429517  0.00124158  0.0863044 0.7000
                               ***Turning on DIIS***
  2  -1679.6841070479  -0.136693413888 0.44817331  0.00287642  0.0364321 0.0000
  3  -1679.8808440956  -0.196737047720 0.12937431  0.00081842  0.0490167 0.0000
  4  -1679.9323268183  -0.051482722728 0.08922483  0.00053101  0.0127776 0.0000
  5  -1679.9347454863  -0.002418668003 0.03202754  0.00020212  0.0070116 0.0000
                      *** Initiating the SOSCF procedure ***
                           *** Shutting down DIIS ***
                      *** Re-Reading the Fockian *** 
                      *** Removing any level shift *** 
ITER      Energy       Delta-E        Grad      Rot      Max-DP    RMS-DP
  6  -1679.93506763  -0.0003221473  0.000436  0.000436  0.010918  0.000071
               *** Restarting incremental Fock matrix formation ***
  7  -1679.93504209   0.0000255425  0.000276  0.001406  0.013719  0.000089
  8  -1679.93504179   0.0000003059  0.000280  0.001075  0.001307  0.000011
  9  -1679.93504733  -0.0000055492  0.000147  0.000653  0.003665  0.000022
 10  -1679.93504611   0.0000012273  0.000214  0.000474  0.001055  0.000006
 11  -1679.93504804  -0.0000019324  0.000038  0.000220  0.000728  0.000004
 12  -1679.93504788   0.0000001634  0.000065  0.000095  0.000159  0.000001
 13  -1679.93504813  -0.0000002492  0.000009  0.000037  0.000439  0.000002
 14  -1679.93504809   0.0000000398  0.000015  0.000023  0.000079  0.000000
                  ***Gradient check signals convergence***
              ***Rediagonalizing the Fockian in SOSCF/NRSCF***

               *****************************************************
               *                     SUCCESS                       *
               *           SCF CONVERGED AFTER  15 CYCLES          *
               *****************************************************

Old exchange energy                            =    -40.303381418 Eh
New exchange energy                            =    -40.303347756 Eh
Exchange energy change after final integration =      0.000033662 Eh
Total energy after final integration           =  -1679.935014460 Eh
Final COS-X integration done in                =    22.408 sec

----------------
TOTAL SCF ENERGY
----------------

Total Energy       :        -1679.93501446 Eh          -45713.35577 eV

Components:
Nuclear Repulsion  :         2557.33283697 Eh           69588.56431 eV
Electronic Energy  :        -4237.26785143 Eh         -115301.92007 eV
One Electron Energy:        -7368.93998088 Eh         -200519.05107 eV
Two Electron Energy:         3131.67212945 Eh           85217.13100 eV
Max COSX asymmetry :            0.00000173 Eh               0.00005 eV

Virial components:
Potential Energy   :        -3352.31420247 Eh          -91221.10704 eV
Kinetic Energy     :         1672.37918801 Eh           45507.75128 eV
Virial Ratio       :            2.00451801


DFT components:
N(Alpha)           :      117.000154681033 electrons
N(Beta)            :      117.000154681033 electrons
N(Total)           :      234.000309362066 electrons
E(X)               :     -160.142611892690 Eh       
E(C)               :       -9.393874341408 Eh       
E(XC)              :     -169.536486234098 Eh       
DFET-embed. en.    :        0.000000000000 Eh       

---------------
SCF CONVERGENCE
---------------

  Last Energy change         ...   -3.6591e-08  Tolerance :   1.0000e-08
  Last MAX-Density change    ...    2.7756e-15  Tolerance :   1.0000e-07
  Last RMS-Density change    ...    1.1890e-17  Tolerance :   5.0000e-09
  Last Orbital Gradient      ...    2.3698e-06  Tolerance :   1.0000e-05
  Last Orbital Rotation      ...    8.8502e-06  Tolerance :   1.0000e-05

             **** THE GBW FILE WAS UPDATED (b3lyp.gbw) ****
             **** DENSITY b3lyp.scfp WAS UPDATED ****
             **** ENERGY FILE WAS UPDATED (b3lyp.en.tmp) ****
             **** THE GBW FILE WAS UPDATED (b3lyp.gbw) ****
             **** DENSITY b3lyp.scfp WAS UPDATED ****
----------------
ORBITAL ENERGIES
----------------

  NO   OCC          E(Eh)            E(eV) 
   0   2.0000     -88.848955     -2417.7030 
   1   2.0000     -19.166124      -521.5368 
   2   2.0000     -14.414874      -392.2487 
   3   2.0000     -14.365711      -390.9109 
   4   2.0000     -14.354118      -390.5954 
   5   2.0000     -14.351216      -390.5164 
   6   2.0000     -14.333852      -390.0439 
   7   2.0000     -10.250619      -278.9335 
   8   2.0000     -10.239979      -278.6440 
   9   2.0000     -10.237114      -278.5660 
  10   2.0000     -10.214022      -277.9377 
  11   2.0000     -10.206334      -277.7285 
  12   2.0000     -10.205853      -277.7154 
  13   2.0000     -10.203778      -277.6589 
  14   2.0000     -10.203320      -277.6465 
  15   2.0000     -10.195930      -277.4454 
  16   2.0000     -10.187299      -277.2105 
  17   2.0000     -10.186655      -277.1930 
  18   2.0000     -10.183079      -277.0957 
  19   2.0000     -10.182488      -277.0796 
  20   2.0000     -10.180819      -277.0342 
  21   2.0000     -10.180794      -277.0335 
  22   2.0000     -10.179431      -276.9964 
  23   2.0000     -10.178313      -276.9660 
  24   2.0000     -10.176055      -276.9045 
  25   2.0000     -10.175867      -276.8994 
  26   2.0000     -10.175372      -276.8860 
  27   2.0000     -10.175082      -276.8781 
  28   2.0000     -10.173583      -276.8373 
  29   2.0000     -10.173567      -276.8368 
  30   2.0000     -10.172668      -276.8124 
  31   2.0000      -7.925103      -215.6530 
  32   2.0000      -5.888166      -160.2251 
  33   2.0000      -5.884959      -160.1379 
  34   2.0000      -5.879715      -159.9952 
  35   2.0000      -1.102907       -30.0116 
  36   2.0000      -1.084838       -29.5199 
  37   2.0000      -0.962592       -26.1935 
  38   2.0000      -0.924898       -25.1677 
  39   2.0000      -0.871588       -23.7171 
  40   2.0000      -0.854950       -23.2644 
  41   2.0000      -0.827146       -22.5078 
  42   2.0000      -0.817628       -22.2488 
  43   2.0000      -0.815359       -22.1870 
  44   2.0000      -0.792954       -21.5774 
  45   2.0000      -0.788655       -21.4604 
  46   2.0000      -0.760730       -20.7005 
  47   2.0000      -0.757263       -20.6062 
  48   2.0000      -0.750331       -20.4176 
  49   2.0000      -0.745342       -20.2818 
  50   2.0000      -0.719298       -19.5731 
  51   2.0000      -0.714301       -19.4371 
  52   2.0000      -0.673811       -18.3353 
  53   2.0000      -0.671876       -18.2827 
  54   2.0000      -0.632222       -17.2036 
  55   2.0000      -0.628364       -17.0986 
  56   2.0000      -0.620641       -16.8885 
  57   2.0000      -0.617531       -16.8039 
  58   2.0000      -0.595104       -16.1936 
  59   2.0000      -0.590429       -16.0664 
  60   2.0000      -0.585948       -15.9444 
  61   2.0000      -0.580821       -15.8049 
  62   2.0000      -0.578969       -15.7545 
  63   2.0000      -0.568127       -15.4595 
  64   2.0000      -0.545549       -14.8451 
  65   2.0000      -0.541655       -14.7392 
  66   2.0000      -0.518007       -14.0957 
  67   2.0000      -0.506430       -13.7806 
  68   2.0000      -0.495423       -13.4811 
  69   2.0000      -0.493442       -13.4272 
  70   2.0000      -0.485841       -13.2204 
  71   2.0000      -0.484041       -13.1714 
  72   2.0000      -0.482128       -13.1194 
  73   2.0000      -0.468795       -12.7566 
  74   2.0000      -0.462564       -12.5870 
  75   2.0000      -0.453898       -12.3512 
  76   2.0000      -0.452158       -12.3039 
  77   2.0000      -0.439895       -11.9702 
  78   2.0000      -0.436979       -11.8908 
  79   2.0000      -0.435919       -11.8620 
  80   2.0000      -0.434334       -11.8188 
  81   2.0000      -0.430034       -11.7018 
  82   2.0000      -0.428025       -11.6471 
  83   2.0000      -0.421485       -11.4692 
  84   2.0000      -0.413675       -11.2567 
  85   2.0000      -0.413290       -11.2462 
  86   2.0000      -0.406673       -11.0661 
  87   2.0000      -0.401108       -10.9147 
  88   2.0000      -0.394197       -10.7267 
  89   2.0000      -0.387685       -10.5494 
  90   2.0000      -0.380836       -10.3631 
  91   2.0000      -0.378565       -10.3013 
  92   2.0000      -0.370287       -10.0760 
  93   2.0000      -0.368595       -10.0300 
  94   2.0000      -0.361908        -9.8480 
  95   2.0000      -0.361298        -9.8314 
  96   2.0000      -0.354558        -9.6480 
  97   2.0000      -0.349972        -9.5232 
  98   2.0000      -0.347278        -9.4499 
  99   2.0000      -0.343185        -9.3385 
 100   2.0000      -0.339464        -9.2373 
 101   2.0000      -0.337626        -9.1873 
 102   2.0000      -0.335612        -9.1325 
 103   2.0000      -0.334196        -9.0939 
 104   2.0000      -0.329466        -8.9652 
 105   2.0000      -0.326779        -8.8921 
 106   2.0000      -0.323309        -8.7977 
 107   2.0000      -0.307767        -8.3748 
 108   2.0000      -0.295247        -8.0341 
 109   2.0000      -0.282573        -7.6892 
 110   2.0000      -0.273758        -7.4493 
 111   2.0000      -0.263329        -7.1655 
 112   2.0000      -0.257530        -7.0077 
 113   2.0000      -0.245825        -6.6892 
 114   2.0000      -0.234371        -6.3776 
 115   2.0000      -0.215813        -5.8726 
 116   2.0000      -0.207559        -5.6480 
 117   0.0000      -0.094054        -2.5593 
 118   0.0000      -0.023547        -0.6407 
 119   0.0000      -0.020367        -0.5542 
 120   0.0000      -0.011129        -0.3028 
 121   0.0000      -0.004549        -0.1238 
 122   0.0000      -0.004199        -0.1143 
 123   0.0000       0.017402         0.4735 
 124   0.0000       0.027519         0.7488 
 125   0.0000       0.029240         0.7957 
 126   0.0000       0.035757         0.9730 
 127   0.0000       0.039841         1.0841 
 128   0.0000       0.045992         1.2515 
 129   0.0000       0.046751         1.2722 
 130   0.0000       0.051073         1.3898 
 131   0.0000       0.057459         1.5635 
 132   0.0000       0.060769         1.6536 
 133   0.0000       0.063863         1.7378 
 134   0.0000       0.066020         1.7965 
 135   0.0000       0.074536         2.0282 
 136   0.0000       0.076024         2.0687 
 137   0.0000       0.077878         2.1192 
 138   0.0000       0.079425         2.1613 
 139   0.0000       0.082466         2.2440 
 140   0.0000       0.087288         2.3752 
 141   0.0000       0.092414         2.5147 
 142   0.0000       0.094559         2.5731 
 143   0.0000       0.100701         2.7402 
 144   0.0000       0.103731         2.8227 
 145   0.0000       0.106703         2.9035 
 146   0.0000       0.107405         2.9226 
 147   0.0000       0.108853         2.9620 
 148   0.0000       0.109422         2.9775 
 149   0.0000       0.115455         3.1417 
 150   0.0000       0.123224         3.3531 
 151   0.0000       0.124611         3.3908 
 152   0.0000       0.127258         3.4629 
 153   0.0000       0.129942         3.5359 
 154   0.0000       0.132541         3.6066 
 155   0.0000       0.133815         3.6413 
 156   0.0000       0.134487         3.6596 
 157   0.0000       0.142175         3.8688 
 158   0.0000       0.145502         3.9593 
 159   0.0000       0.147706         4.0193 
 160   0.0000       0.149152         4.0586 
 161   0.0000       0.153122         4.1667 
 162   0.0000       0.158974         4.3259 
 163   0.0000       0.162823         4.4306 
 164   0.0000       0.164292         4.4706 
 165   0.0000       0.165855         4.5132 
 166   0.0000       0.171058         4.6547 
 167   0.0000       0.174156         4.7390 
 168   0.0000       0.183279         4.9873 
 169   0.0000       0.186950         5.0872 
 170   0.0000       0.189573         5.1585 
 171   0.0000       0.193902         5.2763 
 172   0.0000       0.194837         5.3018 
 173   0.0000       0.196468         5.3462 
 174   0.0000       0.199437         5.4270 
 175   0.0000       0.201901         5.4940 
 176   0.0000       0.205972         5.6048 
 177   0.0000       0.211694         5.7605 
 178   0.0000       0.214112         5.8263 
 179   0.0000       0.215837         5.8732 
 180   0.0000       0.217222         5.9109 
 181   0.0000       0.221304         6.0220 
 182   0.0000       0.228774         6.2252 
 183   0.0000       0.229909         6.2561 
 184   0.0000       0.230765         6.2794 
 185   0.0000       0.234380         6.3778 
 186   0.0000       0.237398         6.4599 
 187   0.0000       0.241012         6.5583 
 188   0.0000       0.243991         6.6393 
 189   0.0000       0.246359         6.7038 
 190   0.0000       0.247814         6.7434 
 191   0.0000       0.249847         6.7987 
 192   0.0000       0.253069         6.8864 
 193   0.0000       0.259821         7.0701 
 194   0.0000       0.261909         7.1269 
 195   0.0000       0.263472         7.1694 
 196   0.0000       0.268905         7.3173 
 197   0.0000       0.271655         7.3921 
 198   0.0000       0.276257         7.5173 
 199   0.0000       0.278113         7.5678 
 200   0.0000       0.280512         7.6331 
 201   0.0000       0.282120         7.6769 
 202   0.0000       0.284470         7.7408 
 203   0.0000       0.285295         7.7633 
 204   0.0000       0.287163         7.8141 
 205   0.0000       0.289870         7.8878 
[...]
 76:    958.87   0.000230    1.16  0.000075  ( 0.008541 -0.000650 -0.001266)
 77:    969.27   0.000386    1.95  0.000124  ( 0.005383  0.009697  0.001121)
 78:    979.12   0.000210    1.06  0.000067  (-0.007880  0.001227  0.001859)
 79:    995.78   0.001498    7.57  0.000470  (-0.010111 -0.004376 -0.018661)
 80:    997.24   0.005344   27.01  0.001672  ( 0.001949  0.007630  0.040128)
 81:    998.98   0.000048    0.24  0.000015  ( 0.003296  0.001877 -0.000687)
 82:    999.75   0.000017    0.08  0.000005  (-0.001857 -0.000359 -0.001271)
 83:   1000.41   0.000049    0.25  0.000015  ( 0.003698 -0.000488 -0.001120)
 84:   1023.81   0.000280    1.41  0.000085  ( 0.001279  0.005595  0.007233)
 85:   1031.74   0.001539    7.77  0.000465  ( 0.002394  0.004312  0.021000)
 86:   1034.51   0.000186    0.94  0.000056  ( 0.001602  0.002367  0.006930)
 87:   1036.88   0.000444    2.24  0.000134  ( 0.006132 -0.002088  0.009574)
 88:   1049.58   0.000582    2.94  0.000173  ( 0.001621 -0.003151  0.012666)
 89:   1058.31   0.009574   48.38  0.002823  ( 0.005392  0.009187 -0.052053)
 90:   1062.75   0.017827   90.09  0.005235  ( 0.010591  0.052332  0.048825)
 91:   1064.18   0.000385    1.95  0.000113  (-0.007880 -0.000138  0.007135)
 92:   1069.58   0.000037    0.19  0.000011  (-0.002148  0.000768 -0.002381)
 93:   1072.41   0.000073    0.37  0.000021  ( 0.001835  0.000701 -0.004172)
 94:   1097.53   0.000214    1.08  0.000061  ( 0.001800  0.004625 -0.006016)
 95:   1111.33   0.002037   10.29  0.000572  (-0.004331 -0.003366 -0.023277)
 96:   1116.23   0.000218    1.10  0.000061  ( 0.001524 -0.005653  0.005153)
 97:   1129.55   0.000952    4.81  0.000263  (-0.001649  0.005564 -0.015146)
 98:   1133.50   0.003605   18.22  0.000993  ( 0.002327 -0.022214  0.022219)
 99:   1137.63   0.001729    8.74  0.000474  (-0.014328 -0.015413  0.005599)
100:   1162.74   0.016619   83.98  0.004460  ( 0.010553  0.025058  0.060999)
101:   1172.49   0.000164    0.83  0.000044  ( 0.006383 -0.000602 -0.001606)
102:   1175.94   0.027300  137.96  0.007245  (-0.013059 -0.024981 -0.080313)
103:   1204.43   0.003512   17.75  0.000910  ( 0.004885  0.008010 -0.028669)
104:   1206.17   0.003349   16.93  0.000867  (-0.002914 -0.013422 -0.026037)
105:   1220.37   0.001068    5.40  0.000273  ( 0.004652  0.004881  0.015085)
106:   1224.00   0.001113    5.63  0.000284  (-0.005726 -0.000456 -0.015838)
107:   1229.85   0.000583    2.95  0.000148  ( 0.006023 -0.007638 -0.007307)
108:   1250.73   0.001813    9.16  0.000452  ( 0.002491 -0.004628 -0.020609)
109:   1261.96   0.000805    4.07  0.000199  ( 0.012072  0.002477  0.006869)
110:   1269.03   0.003770   19.05  0.000927  (-0.004566 -0.006596 -0.029370)
111:   1273.13   0.007516   37.98  0.001842  (-0.009275 -0.028146 -0.031050)
112:   1281.32   0.012032   60.81  0.002930  ( 0.015017  0.031229  0.041590)
113:   1283.55   0.097454  492.49  0.023693  (-0.021442 -0.050774 -0.143721)
114:   1296.60   0.001151    5.81  0.000277  (-0.014430  0.003872  0.007327)
115:   1304.12   0.000355    1.80  0.000085  ( 0.001350  0.009072 -0.000967)
116:   1319.54   0.000727    3.68  0.000172  ( 0.007208  0.010934 -0.000732)
117:   1327.53   0.002004   10.13  0.000471  ( 0.003252  0.000764  0.021444)
118:   1329.55   0.000064    0.32  0.000015  ( 0.000094  0.002721  0.002761)
119:   1331.24   0.000238    1.20  0.000056  (-0.005427  0.002284  0.004599)
120:   1332.56   0.000489    2.47  0.000114  (-0.010532  0.001366 -0.001292)
121:   1339.31   0.001215    6.14  0.000283  ( 0.002280  0.001406  0.016613)
122:   1342.09   0.000273    1.38  0.000063  ( 0.000715  0.000406 -0.007925)
123:   1342.69   0.000682    3.45  0.000159  (-0.002372 -0.000760 -0.012345)
124:   1351.65   0.001359    6.87  0.000314  (-0.003416 -0.002577 -0.017190)
125:   1362.33   0.014698   74.28  0.003367  ( 0.007983  0.018634  0.054367)
126:   1365.51   0.001195    6.04  0.000273  (-0.008946 -0.000364  0.013893)
127:   1389.31   0.000129    0.65  0.000029  ( 0.002711 -0.000609  0.004611)
128:   1393.44   0.004700   23.75  0.001052  (-0.002887 -0.001879 -0.032258)
129:   1402.79   0.001679    8.49  0.000374  (-0.000628  0.000502 -0.019312)
130:   1407.67   0.000495    2.50  0.000110  (-0.002090 -0.000387  0.010258)
131:   1409.27   0.002757   13.93  0.000610  (-0.000384  0.000811 -0.024692)
132:   1447.35   0.006679   33.76  0.001440  (-0.004169 -0.016580 -0.033881)
133:   1457.61   0.001079    5.45  0.000231  ( 0.004553  0.001604  0.014412)
134:   1474.86   0.000208    1.05  0.000044  ( 0.003742 -0.003213  0.004443)
135:   1476.71   0.011973   60.51  0.002530  ( 0.005707  0.004623 -0.049762)
136:   1477.05   0.002174   10.98  0.000459  ( 0.004641  0.001804  0.020843)
137:   1485.21   0.000428    2.16  0.000090  (-0.001536 -0.000529  0.009342)
138:   1486.41   0.000120    0.60  0.000025  (-0.001529  0.000286  0.004764)
139:   1488.72   0.000794    4.01  0.000166  ( 0.002883 -0.002334  0.012354)
140:   1492.73   0.005558   28.09  0.001162  ( 0.002603 -0.007775  0.033085)
141:   1493.69   0.001663    8.40  0.000347  ( 0.018168 -0.001932 -0.003697)
142:   1494.51   0.002037   10.30  0.000425  ( 0.003138 -0.004110  0.019967)
143:   1502.62   0.000542    2.74  0.000113  ( 0.008326 -0.004634  0.004672)
144:   1504.25   0.005749   29.06  0.001193  ( 0.006231  0.011971  0.031790)
145:   1507.84   0.003649   18.44  0.000755  (-0.004457 -0.007896 -0.025940)
146:   1510.91   0.000068    0.34  0.000014  ( 0.000895  0.000948 -0.003517)
147:   1516.56   0.002820   14.25  0.000580  ( 0.019997 -0.008204  0.010640)
148:   1531.80   0.005038   25.46  0.001026  ( 0.005124  0.012178  0.029185)
149:   1545.16   0.024378  123.20  0.004923  (-0.010727 -0.018359 -0.066868)
150:   1586.49   0.000219    1.11  0.000043  ( 0.002723  0.005257  0.002833)
151:   1610.32   0.008606   43.49  0.001668  (-0.005251 -0.004639 -0.040232)
152:   1614.72   0.007442   37.61  0.001438  ( 0.005289  0.001862  0.037507)
153:   1648.70   0.062339  315.03  0.011799  (-0.014727 -0.028805 -0.103696)
154:   1654.03   0.002480   12.53  0.000468  (-0.005269 -0.013195 -0.016308)
155:   2663.31   0.000909    4.60  0.000107  (-0.002136  0.010081 -0.000609)
156:   2997.13   0.000050    0.25  0.000005  ( 0.001715 -0.000946  0.001154)
157:   2997.66   0.000005    0.02  0.000000  ( 0.000283  0.000581  0.000242)
158:   2999.92   0.001476    7.46  0.000153  (-0.009009  0.005144 -0.006773)
159:   3004.73   0.000025    0.13  0.000003  (-0.000851 -0.000421 -0.001320)
160:   3010.01   0.016438   83.07  0.001704  (-0.006182 -0.029820 -0.027871)
161:   3011.49   0.006664   33.68  0.000691  (-0.020029  0.011271 -0.012743)
162:   3013.80   0.007578   38.30  0.000785  ( 0.022720 -0.007281  0.014679)
163:   3016.48   0.002025   10.23  0.000209  (-0.010669  0.006662 -0.007159)
164:   3019.67   0.005487   27.73  0.000567  ( 0.018347 -0.010376  0.011081)
165:   3024.50   0.005571   28.15  0.000575  ( 0.016743 -0.012526  0.011729)
166:   3028.47   0.004016   20.29  0.000414  ( 0.015888  0.001944  0.012553)
167:   3039.92   0.000052    0.26  0.000005  (-0.001369  0.001213 -0.001413)
168:   3046.36   0.006120   30.93  0.000627  (-0.021430  0.008806 -0.009493)
169:   3052.28   0.005468   27.63  0.000559  (-0.000255  0.023637 -0.000473)
170:   3058.26   0.004892   24.72  0.000499  (-0.012693  0.006618 -0.017155)
171:   3060.77   0.017639   89.14  0.001798  (-0.015306 -0.032560 -0.022448)
172:   3067.18   0.006574   33.22  0.000669  (-0.025543  0.001798  0.003627)
173:   3070.16   0.009152   46.25  0.000930  (-0.001854  0.030439 -0.000533)
174:   3091.84   0.005966   30.15  0.000602  ( 0.009564  0.021522  0.006894)
175:   3113.38   0.002472   12.49  0.000248  (-0.003379 -0.013109 -0.008031)
176:   3136.93   0.005253   26.55  0.000523  (-0.003083 -0.000010 -0.022652)
177:   3168.81   0.004348   21.97  0.000428  (-0.001484  0.008271 -0.018910)
178:   3186.66   0.001970    9.96  0.000193  ( 0.001463 -0.004157  0.013173)
179:   3187.53   0.000556    2.81  0.000054  ( 0.000251  0.005034 -0.005388)
180:   3188.82   0.000090    0.46  0.000009  ( 0.000387  0.000865  0.002816)
181:   3207.53   0.000350    1.77  0.000034  (-0.000685 -0.005746 -0.000753)
182:   3211.77   0.000456    2.31  0.000044  ( 0.000540 -0.002915  0.005964)
183:   3213.13   0.000514    2.60  0.000050  (-0.000387  0.004708 -0.005253)
184:   3214.40   0.003336   16.86  0.000324  (-0.002781 -0.010128 -0.014613)
185:   3276.18   0.000244    1.24  0.000023  (-0.000129 -0.001884  0.004441)

* The epsilon (eps) is given for a Dirac delta lineshape.
** The dipole moment derivative (T) already includes vibrational overlap.

The first frequency considered to be a vibration is 6
The total number of vibrations considered is 180


--------------------------
THERMOCHEMISTRY AT 298.15K
--------------------------

Temperature         ... 298.15 K
Pressure            ... 1.00 atm
Total Mass          ... 437.61 AMU

Throughout the following assumptions are being made:
  (1) The electronic state is orbitally nondegenerate
  (2) There are no thermally accessible electronically excited states
  (3) Hindered rotations indicated by low frequency modes are not
      treated as such but are treated as vibrations and this may
      cause some error
  (4) All equations used are the standard statistical mechanics
      equations for an ideal gas
  (5) All vibrations are strictly harmonic

freq.       4.21  E(vib)   ...       0.59 
freq.      11.31  E(vib)   ...       0.58 
freq.      17.73  E(vib)   ...       0.57 
freq.      21.22  E(vib)   ...       0.56 
freq.      23.13  E(vib)   ...       0.56 
freq.      26.51  E(vib)   ...       0.56 
freq.      35.57  E(vib)   ...       0.54 
freq.      41.07  E(vib)   ...       0.54 
freq.      52.45  E(vib)   ...       0.52 
freq.      59.50  E(vib)   ...       0.51 
freq.      66.35  E(vib)   ...       0.50 
freq.      72.20  E(vib)   ...       0.50 
freq.     100.84  E(vib)   ...       0.46 
freq.     103.65  E(vib)   ...       0.46 
freq.     110.54  E(vib)   ...       0.45 
freq.     114.62  E(vib)   ...       0.44 
freq.     122.59  E(vib)   ...       0.43 
freq.     131.55  E(vib)   ...       0.42 
freq.     155.36  E(vib)   ...       0.40 
freq.     156.96  E(vib)   ...       0.40 
freq.     163.13  E(vib)   ...       0.39 
freq.     175.32  E(vib)   ...       0.38 
freq.     192.22  E(vib)   ...       0.36 
freq.     202.71  E(vib)   ...       0.35 
freq.     214.03  E(vib)   ...       0.34 
freq.     218.95  E(vib)   ...       0.33 
freq.     247.01  E(vib)   ...       0.31 
freq.     253.67  E(vib)   ...       0.30 
freq.     282.25  E(vib)   ...       0.28 
freq.     315.22  E(vib)   ...       0.25 
freq.     334.94  E(vib)   ...       0.24 
freq.     347.23  E(vib)   ...       0.23 
freq.     371.56  E(vib)   ...       0.21 
freq.     374.92  E(vib)   ...       0.21 
freq.     407.03  E(vib)   ...       0.19 
freq.     421.59  E(vib)   ...       0.18 
freq.     436.63  E(vib)   ...       0.17 
freq.     447.39  E(vib)   ...       0.17 
freq.     463.38  E(vib)   ...       0.16 
freq.     475.96  E(vib)   ...       0.15 
freq.     482.68  E(vib)   ...       0.15 
freq.     505.04  E(vib)   ...       0.14 
freq.     527.47  E(vib)   ...       0.13 
freq.     546.18  E(vib)   ...       0.12 
freq.     568.31  E(vib)   ...       0.11 
freq.     569.57  E(vib)   ...       0.11 
freq.     647.47  E(vib)   ...       0.09 
freq.     656.27  E(vib)   ...       0.08 
freq.     673.20  E(vib)   ...       0.08 
freq.     693.36  E(vib)   ...       0.07 
freq.     708.62  E(vib)   ...       0.07 
freq.     728.37  E(vib)   ...       0.06 
freq.     734.70  E(vib)   ...       0.06 
freq.     736.82  E(vib)   ...       0.06 
freq.     744.60  E(vib)   ...       0.06 
freq.     749.53  E(vib)   ...       0.06 
freq.     763.68  E(vib)   ...       0.06 
freq.     765.95  E(vib)   ...       0.06 
freq.     771.74  E(vib)   ...       0.05 
freq.     792.44  E(vib)   ...       0.05 
freq.     802.68  E(vib)   ...       0.05 
freq.     806.97  E(vib)   ...       0.05 
freq.     822.67  E(vib)   ...       0.05 
freq.     845.10  E(vib)   ...       0.04 
freq.     854.69  E(vib)   ...       0.04 
freq.     859.28  E(vib)   ...       0.04 
freq.     866.75  E(vib)   ...       0.04 
freq.     886.91  E(vib)   ...       0.04 
freq.     909.17  E(vib)   ...       0.03 
freq.     942.01  E(vib)   ...       0.03 
freq.     958.87  E(vib)   ...       0.03 
freq.     969.27  E(vib)   ...       0.03 
freq.     979.12  E(vib)   ...       0.03 
freq.     995.78  E(vib)   ...       0.02 
freq.     997.24  E(vib)   ...       0.02 
freq.     998.98  E(vib)   ...       0.02 
freq.     999.75  E(vib)   ...       0.02 
freq.    1000.41  E(vib)   ...       0.02 
freq.    1023.81  E(vib)   ...       0.02 
freq.    1031.74  E(vib)   ...       0.02 
freq.    1034.51  E(vib)   ...       0.02 
freq.    1036.88  E(vib)   ...       0.02 
freq.    1049.58  E(vib)   ...       0.02 
freq.    1058.31  E(vib)   ...       0.02 
freq.    1062.75  E(vib)   ...       0.02 
freq.    1064.18  E(vib)   ...       0.02 
freq.    1069.58  E(vib)   ...       0.02 
freq.    1072.41  E(vib)   ...       0.02 
freq.    1097.53  E(vib)   ...       0.02 
freq.    1111.33  E(vib)   ...       0.01 
freq.    1116.23  E(vib)   ...       0.01 
freq.    1129.55  E(vib)   ...       0.01 
freq.    1133.50  E(vib)   ...       0.01 
freq.    1137.63  E(vib)   ...       0.01 
freq.    1162.74  E(vib)   ...       0.01 
freq.    1172.49  E(vib)   ...       0.01 
freq.    1175.94  E(vib)   ...       0.01 
freq.    1204.43  E(vib)   ...       0.01 
freq.    1206.17  E(vib)   ...       0.01 
freq.    1220.37  E(vib)   ...       0.01 
freq.    1224.00  E(vib)   ...       0.01 
freq.    1229.85  E(vib)   ...       0.01 
freq.    1250.73  E(vib)   ...       0.01 
freq.    1261.96  E(vib)   ...       0.01 
freq.    1269.03  E(vib)   ...       0.01 
freq.    1273.13  E(vib)   ...       0.01 
freq.    1281.32  E(vib)   ...       0.01 
freq.    1283.55  E(vib)   ...       0.01 
freq.    1296.60  E(vib)   ...       0.01 
freq.    1304.12  E(vib)   ...       0.01 
freq.    1319.54  E(vib)   ...       0.01 
freq.    1327.53  E(vib)   ...       0.01 
freq.    1329.55  E(vib)   ...       0.01 
freq.    1331.24  E(vib)   ...       0.01 
freq.    1332.56  E(vib)   ...       0.01 
freq.    1339.31  E(vib)   ...       0.01 
freq.    1342.09  E(vib)   ...       0.01 
freq.    1342.69  E(vib)   ...       0.01 
freq.    1351.65  E(vib)   ...       0.01 
freq.    1362.33  E(vib)   ...       0.01 
freq.    1365.51  E(vib)   ...       0.01 
freq.    1389.31  E(vib)   ...       0.00 
freq.    1393.44  E(vib)   ...       0.00 
freq.    1402.79  E(vib)   ...       0.00 
freq.    1407.67  E(vib)   ...       0.00 
freq.    1409.27  E(vib)   ...       0.00 
freq.    1447.35  E(vib)   ...       0.00 
freq.    1457.61  E(vib)   ...       0.00 
freq.    1474.86  E(vib)   ...       0.00 
freq.    1476.71  E(vib)   ...       0.00 
freq.    1477.05  E(vib)   ...       0.00 
freq.    1485.21  E(vib)   ...       0.00 
freq.    1486.41  E(vib)   ...       0.00 
freq.    1488.72  E(vib)   ...       0.00 
freq.    1492.73  E(vib)   ...       0.00 
freq.    1493.69  E(vib)   ...       0.00 
freq.    1494.51  E(vib)   ...       0.00 
freq.    1502.62  E(vib)   ...       0.00 
freq.    1504.25  E(vib)   ...       0.00 
freq.    1507.84  E(vib)   ...       0.00 
freq.    1510.91  E(vib)   ...       0.00 
freq.    1516.56  E(vib)   ...       0.00 
freq.    1531.80  E(vib)   ...       0.00 
freq.    1545.16  E(vib)   ...       0.00 
freq.    1586.49  E(vib)   ...       0.00 
freq.    1610.32  E(vib)   ...       0.00 
freq.    1614.72  E(vib)   ...       0.00 
freq.    1648.70  E(vib)   ...       0.00 
freq.    1654.03  E(vib)   ...       0.00 
freq.    2663.31  E(vib)   ...       0.00 
freq.    2997.13  E(vib)   ...       0.00 
freq.    2997.66  E(vib)   ...       0.00 
freq.    2999.92  E(vib)   ...       0.00 
freq.    3004.73  E(vib)   ...       0.00 
freq.    3010.01  E(vib)   ...       0.00 
freq.    3011.49  E(vib)   ...       0.00 
freq.    3013.80  E(vib)   ...       0.00 
freq.    3016.48  E(vib)   ...       0.00 
freq.    3019.67  E(vib)   ...       0.00 
freq.    3024.50  E(vib)   ...       0.00 
freq.    3028.47  E(vib)   ...       0.00 
freq.    3039.92  E(vib)   ...       0.00 
freq.    3046.36  E(vib)   ...       0.00 
freq.    3052.28  E(vib)   ...       0.00 
freq.    3058.26  E(vib)   ...       0.00 
freq.    3060.77  E(vib)   ...       0.00 
freq.    3067.18  E(vib)   ...       0.00 
freq.    3070.16  E(vib)   ...       0.00 
freq.    3091.84  E(vib)   ...       0.00 
freq.    3113.38  E(vib)   ...       0.00 
freq.    3136.93  E(vib)   ...       0.00 
freq.    3168.81  E(vib)   ...       0.00 
freq.    3186.66  E(vib)   ...       0.00 
freq.    3187.53  E(vib)   ...       0.00 
freq.    3188.82  E(vib)   ...       0.00 
freq.    3207.53  E(vib)   ...       0.00 
freq.    3211.77  E(vib)   ...       0.00 
freq.    3213.13  E(vib)   ...       0.00 
freq.    3214.40  E(vib)   ...       0.00 
freq.    3276.18  E(vib)   ...       0.00 

------------
INNER ENERGY
------------

The inner energy is: U= E(el) + E(ZPE) + E(vib) + E(rot) + E(trans)
    E(el)   - is the total energy from the electronic structure calculation
              = E(kin-el) + E(nuc-el) + E(el-el) + E(nuc-nuc)
    E(ZPE)  - the the zero temperature vibrational energy from the frequency calculation
    E(vib)  - the the finite temperature correction to E(ZPE) due to population
              of excited vibrational states
    E(rot)  - is the rotational thermal energy
    E(trans)- is the translational thermal energy

Summary of contributions to the inner energy U:
Electronic energy                ...  -1680.09697416 Eh
Zero point energy                ...      0.51672028 Eh     324.25 kcal/mol
Thermal vibrational correction   ...      0.02871435 Eh      18.02 kcal/mol
Thermal rotational correction    ...      0.00141627 Eh       0.89 kcal/mol
Thermal translational correction ...      0.00141627 Eh       0.89 kcal/mol
-----------------------------------------------------------------------
Total thermal energy                  -1679.54870698 Eh


Summary of corrections to the electronic energy:
(perhaps to be used in another calculation)
Total thermal correction                  0.03154690 Eh      19.80 kcal/mol
Non-thermal (ZPE) correction              0.51672028 Eh     324.25 kcal/mol
-----------------------------------------------------------------------
Total correction                          0.54826717 Eh     344.04 kcal/mol


--------
ENTHALPY
--------

The enthalpy is H = U + kB*T
                kB is Boltzmann's constant
Total free energy                 ...  -1679.54870698 Eh 
Thermal Enthalpy correction       ...      0.00094421 Eh       0.59 kcal/mol
-----------------------------------------------------------------------
Total Enthalpy                    ...  -1679.54776277 Eh

‘azid_alt.xyz’ -> ‘/home/floeserb/azid/azid_alt.xyz’
‘azid.hess’ -> ‘/home/floeserb/azid/azid.hess’
‘azid.opt’ -> ‘/home/floeserb/azid/azid.opt’
‘b3lyp.densities’ -> ‘/home/floeserb/azid/b3lyp.densities’
‘b3lyp.engrad’ -> ‘/home/floeserb/azid/b3lyp.engrad’
‘b3lyp.gbw’ -> ‘/home/floeserb/azid/b3lyp.gbw’
‘b3lyp.hess’ -> ‘/home/floeserb/azid/b3lyp.hess’
‘b3lyp.job’ -> ‘/home/floeserb/azid/b3lyp.job’
‘b3lyp.job.e26398’ -> ‘/home/floeserb/azid/b3lyp.job.e26398’
‘b3lyp.job.o26398’ -> ‘/home/floeserb/azid/b3lyp.job.o26398’
‘b3lyp.nodes’ -> ‘/home/floeserb/azid/b3lyp.nodes’
‘b3lyp.opt’ -> ‘/home/floeserb/azid/b3lyp.opt’
‘b3lyp.prop’ -> ‘/home/floeserb/azid/b3lyp.prop’
‘b3lyp_property.txt’ -> ‘/home/floeserb/azid/b3lyp_property.txt’
‘b3lyp_trj.xyz’ -> ‘/home/floeserb/azid/b3lyp_trj.xyz’
‘b3lyp.xyz’ -> ‘/home/floeserb/azid/b3lyp.xyz’
